<?xml version="1.0" encoding="UTF-8"?>

<!-- generated on 2024-11-05 20:30:29 by Eclipse SUMO GUI Version 1.21.0
<sumoConfiguration xmlns:xsi="http://www.w3.org/2001/XMLSchema-instance" xsi:noNamespaceSchemaLocation="http://sumo.dlr.de/xsd/sumoConfiguration.xsd">

    <input>
        <net-file value="C:\Users\George Jiang\Desktop\Version 1\../../../../Windows/system32/2024-11-05-18-42-37/osm.net.xml.gz"/>
        <route-files value="C:\Users\George Jiang\Desktop\Version 1\../../../../Windows/system32/2024-11-05-18-42-37/osm.bicycle.trips.xml,C:\Users\George Jiang\Desktop\Version 1\../../../../Windows/system32/2024-11-05-18-42-37/osm.bus.trips.xml,C:\Users\George Jiang\Desktop\Version 1\../../../../Windows/system32/2024-11-05-18-42-37/osm.motorcycle.trips.xml,C:\Users\George Jiang\Desktop\Version 1\../../../../Windows/system32/2024-11-05-18-42-37/osm.passenger.trips.xml,C:\Users\George Jiang\Desktop\Version 1\../../../../Windows/system32/2024-11-05-18-42-37/osm.pedestrian.rou.xml,C:\Users\George Jiang\Desktop\Version 1\../../../../Windows/system32/2024-11-05-18-42-37/osm.rail.trips.xml,C:\Users\George Jiang\Desktop\Version 1\../../../../Windows/system32/2024-11-05-18-42-37/osm.rail_urban.trips.xml,C:\Users\George Jiang\Desktop\Version 1\../../../../Windows/system32/2024-11-05-18-42-37/osm.ship.trips.xml,C:\Users\George Jiang\Desktop\Version 1\../../../../Windows/system32/2024-11-05-18-42-37/osm.truck.trips.xml"/>
        <additional-files value="C:\Users\George Jiang\Desktop\Version 1\additional.xml"/>
    </input>

    <output>
        <fcd-output value="C:\Users\George Jiang\Desktop\Version 1\routes.xml"/>
        <summary-output value="C:\Users\George Jiang\Desktop\Version 1\summary.xml"/>
        <tripinfo-output value="C:\Users\George Jiang\Desktop\Version 1\tripinfo.xml"/>
        <stop-output value="C:\Users\George Jiang\Desktop\Version 1\stops.xml"/>
        <collision-output value="C:\Users\George Jiang\Desktop\Version 1\collisions.xml"/>
    </output>

    <processing>
        <ignore-route-errors value="true"/>
        <tls.actuated.jam-threshold value="30"/>
    </processing>

    <routing>
        <device.rerouting.adaptation-steps value="18"/>
        <device.rerouting.adaptation-interval value="10"/>
    </routing>

    <report>
        <verbose value="true"/>
        <duration-log.statistics value="true"/>
        <no-step-log value="true"/>
    </report>

    <gui_only>
        <gui-settings-file value="C:\Users\George Jiang\Desktop\Version 1\../../../../Windows/system32/2024-11-05-18-42-37/osm.view.xml"/>
    </gui_only>

</sumoConfiguration>
-->

<tripinfos xmlns:xsi="http://www.w3.org/2001/XMLSchema-instance" xsi:noNamespaceSchemaLocation="http://sumo.dlr.de/xsd/tripinfo_file.xsd">
    <tripinfo id="motorcycle1" depart="2.00" departLane="1195901266_1" departPos="0.20" departSpeed="0.00" departDelay="0.76" arrival="3.00" arrivalLane="1195901266_1" arrivalPos="0.20" arrivalSpeed="3.19" duration="1.00" routeLength="0.00" waitingTime="0.00" waitingCount="0" stopTime="0.00" timeLoss="0.74" rerouteNo="1" devices="tripinfo_motorcycle1 routing_motorcycle1 fcd_motorcycle1" vType="motorcycle_motorcycle" speedFactor="1.08" vaporized=""/>
    <tripinfo id="motorcycle18" depart="23.00" departLane="825494585#6_0" departPos="2.30" departSpeed="0.00" departDelay="0.60" arrival="50.00" arrivalLane="825494585#11_0" arrivalPos="105.32" arrivalSpeed="10.79" duration="27.00" routeLength="243.43" waitingTime="0.00" waitingCount="0" stopTime="0.00" timeLoss="3.79" rerouteNo="1" devices="tripinfo_motorcycle18 routing_motorcycle18 fcd_motorcycle18" vType="motorcycle_motorcycle" speedFactor="0.97" vaporized=""/>
    <tripinfo id="motorcycle4" depart="5.00" departLane="-138827709_0" departPos="0.97" departSpeed="0.00" departDelay="0.02" arrival="57.00" arrivalLane="1106843297#1_1" arrivalPos="89.30" arrivalSpeed="10.44" duration="52.00" routeLength="328.20" waitingTime="8.00" waitingCount="2" stopTime="0.00" timeLoss="21.09" rerouteNo="1" devices="tripinfo_motorcycle4 routing_motorcycle4 fcd_motorcycle4" vType="motorcycle_motorcycle" speedFactor="0.99" vaporized=""/>
    <tripinfo id="veh131" depart="34.00" departLane="485292828#0_0" departPos="0.20" departSpeed="0.00" departDelay="0.03" arrival="69.00" arrivalLane="8651205_2" arrivalPos="22.49" arrivalSpeed="18.59" duration="35.00" routeLength="369.79" waitingTime="0.00" waitingCount="0" stopTime="0.00" timeLoss="11.04" rerouteNo="1" devices="tripinfo_veh131 routing_veh131 fcd_veh131" vType="veh_passenger" speedFactor="1.18" vaporized=""/>
    <tripinfo id="veh11" depart="3.00" departLane="-844528872#2_1" departPos="5.10" departSpeed="0.00" departDelay="0.15" arrival="70.00" arrivalLane="8642489#0_1" arrivalPos="1.84" arrivalSpeed="11.57" duration="67.00" routeLength="575.18" waitingTime="6.00" waitingCount="1" stopTime="0.00" timeLoss="20.58" rerouteNo="1" devices="tripinfo_veh11 routing_veh11 fcd_veh11" vType="veh_passenger" speedFactor="1.10" vaporized=""/>
    <tripinfo id="veh9" depart="3.00" departLane="8646607#1_2" departPos="5.10" departSpeed="0.00" departDelay="0.67" arrival="74.00" arrivalLane="8639568#1_0" arrivalPos="0.53" arrivalSpeed="8.25" duration="71.00" routeLength="551.33" waitingTime="0.00" waitingCount="0" stopTime="0.00" timeLoss="11.62" rerouteNo="1" devices="tripinfo_veh9 routing_veh9 fcd_veh9" vType="veh_passenger" speedFactor="0.85" vaporized=""/>
    <tripinfo id="motorcycle40" depart="50.00" departLane="-103553904#1_0" departPos="0.20" departSpeed="0.00" departDelay="0.22" arrival="82.00" arrivalLane="289462997#5_0" arrivalPos="38.28" arrivalSpeed="8.79" duration="32.00" routeLength="190.28" waitingTime="10.00" waitingCount="1" stopTime="0.00" timeLoss="15.08" rerouteNo="1" devices="tripinfo_motorcycle40 routing_motorcycle40 fcd_motorcycle40" vType="motorcycle_motorcycle" speedFactor="1.04" vaporized=""/>
    <personinfo id="ped87" depart="18.00" type="ped_pedestrian" speedFactor="0.91" duration="66.00" waitingTime="0.00" timeLoss="21.60" traveltime="66.00">
        <walk depart="18.00" departPos="0.00" arrival="84.00" arrivalPos="0.10" duration="66.00" routeLength="56.13" timeLoss="21.60" maxSpeed="1.26"/>
    </personinfo>
    <tripinfo id="bike86" depart="70.00" departLane="242536052#1_1" departPos="1.70" departSpeed="0.00" departDelay="1.07" arrival="87.00" arrivalLane="8639923#2_1" arrivalPos="11.90" arrivalSpeed="5.86" duration="17.00" routeLength="76.50" waitingTime="0.00" waitingCount="0" stopTime="0.00" timeLoss="4.29" rerouteNo="1" devices="tripinfo_bike86 routing_bike86 fcd_bike86" vType="bike_bicycle" speedFactor="1.15" vaporized=""/>
    <tripinfo id="veh55" depart="15.00" departLane="8649126#3_1" departPos="5.10" departSpeed="0.00" departDelay="0.74" arrival="91.00" arrivalLane="8647872#1_0" arrivalPos="30.91" arrivalSpeed="9.08" duration="76.00" routeLength="393.78" waitingTime="23.00" waitingCount="1" stopTime="0.00" timeLoss="36.76" rerouteNo="1" devices="tripinfo_veh55 routing_veh55 fcd_veh55" vType="veh_passenger" speedFactor="0.88" vaporized=""/>
    <personinfo id="ped237" depart="48.00" type="ped_pedestrian" speedFactor="0.91" duration="44.00" waitingTime="0.00" timeLoss="5.79" traveltime="44.00">
        <walk depart="48.00" departPos="0.00" arrival="92.00" arrivalPos="0.10" duration="44.00" routeLength="48.43" timeLoss="5.79" maxSpeed="1.27"/>
    </personinfo>
    <tripinfo id="ship0" depart="0.00" departLane="816330918_0" departPos="17.10" departSpeed="4.12" departDelay="0.00" arrival="96.00" arrivalLane="-1096316166_0" arrivalPos="164.36" arrivalSpeed="4.12" duration="96.00" routeLength="319.94" waitingTime="0.00" waitingCount="0" stopTime="0.00" timeLoss="17.59" rerouteNo="0" devices="tripinfo_ship0 routing_ship0 fcd_ship0" vType="ship_ship" speedFactor="0.94" vaporized=""/>
    <tripinfo id="motorcycle36" depart="45.00" departLane="485292839#1_2" departPos="2.30" departSpeed="0.00" departDelay="0.20" arrival="97.00" arrivalLane="104210747#5_1" arrivalPos="34.64" arrivalSpeed="9.98" duration="52.00" routeLength="229.78" waitingTime="24.00" waitingCount="1" stopTime="0.00" timeLoss="31.54" rerouteNo="1" devices="tripinfo_motorcycle36 routing_motorcycle36 fcd_motorcycle36" vType="motorcycle_motorcycle" speedFactor="1.01" vaporized=""/>
    <tripinfo id="veh77" depart="20.00" departLane="426659495_2" departPos="5.10" departSpeed="0.00" departDelay="0.04" arrival="97.00" arrivalLane="8646541#2_0" arrivalPos="0.20" arrivalSpeed="9.42" duration="77.00" routeLength="621.26" waitingTime="1.00" waitingCount="1" stopTime="0.00" timeLoss="18.32" rerouteNo="1" devices="tripinfo_veh77 routing_veh77 fcd_veh77" vType="veh_passenger" speedFactor="0.96" vaporized=""/>
    <tripinfo id="veh106" depart="28.00" departLane="747090068#1_2" departPos="5.10" departSpeed="0.00" departDelay="0.52" arrival="100.00" arrivalLane="8637970#0_0" arrivalPos="21.89" arrivalSpeed="10.14" duration="72.00" routeLength="483.30" waitingTime="6.00" waitingCount="1" stopTime="0.00" timeLoss="24.82" rerouteNo="1" devices="tripinfo_veh106 routing_veh106 fcd_veh106" vType="veh_passenger" speedFactor="0.94" vaporized=""/>
    <tripinfo id="motorcycle42" depart="53.00" departLane="404955582#0_0" departPos="2.30" departSpeed="12.62" departDelay="0.73" arrival="104.00" arrivalLane="1154673770#1_1" arrivalPos="52.20" arrivalSpeed="10.10" duration="51.00" routeLength="413.61" waitingTime="10.00" waitingCount="1" stopTime="0.00" timeLoss="17.89" rerouteNo="1" devices="tripinfo_motorcycle42 routing_motorcycle42 fcd_motorcycle42" vType="motorcycle_motorcycle" speedFactor="1.13" vaporized=""/>
    <personinfo id="ped285" depart="57.00" type="ped_pedestrian" speedFactor="1.18" duration="49.00" waitingTime="0.00" timeLoss="4.86" traveltime="49.00">
        <walk depart="57.00" departPos="0.00" arrival="106.00" arrivalPos="0.10" duration="49.00" routeLength="72.06" timeLoss="4.86" maxSpeed="1.63"/>
    </personinfo>
    <tripinfo id="veh205" depart="55.00" departLane="426487624#3_1" departPos="5.10" departSpeed="0.00" departDelay="1.85" arrival="107.00" arrivalLane="591217320#2_1" arrivalPos="0.20" arrivalSpeed="9.86" duration="52.00" routeLength="497.66" waitingTime="0.00" waitingCount="0" stopTime="0.00" timeLoss="5.80" rerouteNo="1" devices="tripinfo_veh205 routing_veh205 fcd_veh205" vType="veh_passenger" speedFactor="0.99" vaporized=""/>
    <tripinfo id="veh107" depart="28.00" departLane="1166056604#1_0" departPos="5.10" departSpeed="0.00" departDelay="0.26" arrival="109.00" arrivalLane="944109700#2_1" arrivalPos="24.77" arrivalSpeed="10.90" duration="81.00" routeLength="611.73" waitingTime="4.00" waitingCount="2" stopTime="0.00" timeLoss="26.90" rerouteNo="1" devices="tripinfo_veh107 routing_veh107 fcd_veh107" vType="veh_passenger" speedFactor="1.04" vaporized=""/>
    <tripinfo id="bike122" depart="98.00" departLane="-828301024#18_0" departPos="1.70" departSpeed="0.00" departDelay="0.21" arrival="110.00" arrivalLane="-828301024#15_0" arrivalPos="20.87" arrivalSpeed="5.99" duration="12.00" routeLength="52.31" waitingTime="0.00" waitingCount="0" stopTime="0.00" timeLoss="3.32" rerouteNo="1" devices="tripinfo_bike122 routing_bike122 fcd_bike122" vType="bike_bicycle" speedFactor="1.18" vaporized=""/>
    <tripinfo id="motorcycle17" depart="22.00" departLane="-1175628406#0_0" departPos="2.30" departSpeed="0.00" departDelay="0.84" arrival="111.00" arrivalLane="8651845#0_1" arrivalPos="131.30" arrivalSpeed="10.00" duration="89.00" routeLength="627.62" waitingTime="17.00" waitingCount="2" stopTime="0.00" timeLoss="33.02" rerouteNo="1" devices="tripinfo_motorcycle17 routing_motorcycle17 fcd_motorcycle17" vType="motorcycle_motorcycle" speedFactor="1.01" vaporized=""/>
    <tripinfo id="veh21" depart="6.00" departLane="-8638109#1_0" departPos="5.10" departSpeed="12.50" departDelay="0.56" arrival="112.00" arrivalLane="579261235#0_2" arrivalPos="30.52" arrivalSpeed="11.40" duration="106.00" routeLength="589.34" waitingTime="27.00" waitingCount="2" stopTime="0.00" timeLoss="57.45" rerouteNo="1" devices="tripinfo_veh21 routing_veh21 fcd_veh21" vType="veh_passenger" speedFactor="1.12" vaporized=""/>
    <personinfo id="ped532" depart="106.00" type="ped_pedestrian" speedFactor="0.99" duration="8.00" waitingTime="0.00" timeLoss="2.07" traveltime="8.00">
        <walk depart="106.00" departPos="0.00" arrival="114.00" arrivalPos="0.10" duration="8.00" routeLength="8.16" timeLoss="2.07" maxSpeed="1.37"/>
    </personinfo>
    <tripinfo id="veh66" depart="18.00" departLane="970425331_2" departPos="5.10" departSpeed="0.00" departDelay="0.89" arrival="117.00" arrivalLane="830619438#3_0" arrivalPos="0.20" arrivalSpeed="9.91" duration="99.00" routeLength="646.57" waitingTime="6.00" waitingCount="2" stopTime="0.00" timeLoss="43.85" rerouteNo="1" devices="tripinfo_veh66 routing_veh66 fcd_veh66" vType="veh_passenger" speedFactor="1.06" vaporized=""/>
    <tripinfo id="bike8" depart="7.00" departLane="750567540_0" departPos="1.70" departSpeed="0.00" departDelay="0.59" arrival="118.00" arrivalLane="55677196#5_0" arrivalPos="13.86" arrivalSpeed="2.56" duration="111.00" routeLength="450.90" waitingTime="0.00" waitingCount="0" stopTime="0.00" timeLoss="10.52" rerouteNo="1" devices="tripinfo_bike8 routing_bike8 fcd_bike8" vType="bike_bicycle" speedFactor="0.94" vaporized=""/>
    <tripinfo id="veh99" depart="26.00" departLane="-943142505#1_1" departPos="5.10" departSpeed="0.00" departDelay="0.33" arrival="118.00" arrivalLane="289468262#0_2" arrivalPos="60.76" arrivalSpeed="11.41" duration="92.00" routeLength="738.24" waitingTime="14.00" waitingCount="2" stopTime="0.00" timeLoss="28.71" rerouteNo="1" devices="tripinfo_veh99 routing_veh99 fcd_veh99" vType="veh_passenger" speedFactor="1.06" vaporized=""/>
    <tripinfo id="motorcycle65" depart="81.00" departLane="8648049#3_1" departPos="2.30" departSpeed="0.00" departDelay="0.10" arrival="119.00" arrivalLane="1018283099#2_1" arrivalPos="35.01" arrivalSpeed="9.17" duration="38.00" routeLength="296.28" waitingTime="0.00" waitingCount="0" stopTime="0.00" timeLoss="7.43" rerouteNo="1" devices="tripinfo_motorcycle65 routing_motorcycle65 fcd_motorcycle65" vType="motorcycle_motorcycle" speedFactor="0.89" vaporized=""/>
    <tripinfo id="bike52" depart="42.00" departLane="8645216#3_0" departPos="1.70" departSpeed="0.00" departDelay="0.32" arrival="121.00" arrivalLane="733225891#1_0" arrivalPos="32.88" arrivalSpeed="6.06" duration="79.00" routeLength="351.02" waitingTime="9.00" waitingCount="2" stopTime="0.00" timeLoss="24.08" rerouteNo="1" devices="tripinfo_bike52 routing_bike52 fcd_bike52" vType="bike_bicycle" speedFactor="1.17" vaporized=""/>
    <tripinfo id="bus8" depart="32.00" departLane="8647038#2_0" departPos="12.10" departSpeed="0.00" departDelay="0.43" arrival="124.00" arrivalLane="8640571#1_0" arrivalPos="14.59" arrivalSpeed="10.07" duration="92.00" routeLength="710.77" waitingTime="5.00" waitingCount="1" stopTime="0.00" timeLoss="27.08" rerouteNo="1" devices="tripinfo_bus8 routing_bus8 fcd_bus8" vType="bus_bus" speedFactor="1.00" vaporized=""/>
    <tripinfo id="veh164" depart="43.00" departLane="923656101#0_0" departPos="5.10" departSpeed="0.00" departDelay="0.48" arrival="125.00" arrivalLane="1121696256#3_1" arrivalPos="44.66" arrivalSpeed="11.70" duration="82.00" routeLength="537.97" waitingTime="21.00" waitingCount="2" stopTime="0.00" timeLoss="37.39" rerouteNo="1" devices="tripinfo_veh164 routing_veh164 fcd_veh164" vType="veh_passenger" speedFactor="1.11" vaporized=""/>
    <tripinfo id="veh96" depart="25.00" departLane="426490741_2" departPos="5.10" departSpeed="0.00" departDelay="0.11" arrival="128.00" arrivalLane="426498010#1_0" arrivalPos="12.19" arrivalSpeed="15.65" duration="103.00" routeLength="771.43" waitingTime="26.00" waitingCount="3" stopTime="0.00" timeLoss="49.94" rerouteNo="1" devices="tripinfo_veh96 routing_veh96 fcd_veh96" vType="veh_passenger" speedFactor="1.16" vaporized=""/>
    <tripinfo id="motorcycle22" depart="28.00" departLane="591908557#0_2" departPos="2.30" departSpeed="0.00" departDelay="0.62" arrival="129.00" arrivalLane="8640122#0_1" arrivalPos="0.20" arrivalSpeed="9.51" duration="101.00" routeLength="500.28" waitingTime="41.00" waitingCount="2" stopTime="0.00" timeLoss="54.56" rerouteNo="1" devices="tripinfo_motorcycle22 routing_motorcycle22 fcd_motorcycle22" vType="motorcycle_motorcycle" speedFactor="0.97" vaporized=""/>
    <tripinfo id="motorcycle67" depart="84.00" departLane="1160157713#0_2" departPos="2.30" departSpeed="0.00" departDelay="0.62" arrival="136.00" arrivalLane="8646653#0_0" arrivalPos="0.20" arrivalSpeed="9.38" duration="52.00" routeLength="495.07" waitingTime="3.00" waitingCount="1" stopTime="0.00" timeLoss="15.48" rerouteNo="1" devices="tripinfo_motorcycle67 routing_motorcycle67 fcd_motorcycle67" vType="motorcycle_motorcycle" speedFactor="1.19" vaporized=""/>
    <tripinfo id="motorcycle34" depart="44.00" departLane="1175628406#0_0" departPos="2.30" departSpeed="0.00" departDelay="1.69" arrival="137.00" arrivalLane="8636684#5_0" arrivalPos="0.73" arrivalSpeed="8.07" duration="93.00" routeLength="664.67" waitingTime="17.00" waitingCount="2" stopTime="0.00" timeLoss="30.83" rerouteNo="1" devices="tripinfo_motorcycle34 routing_motorcycle34 fcd_motorcycle34" vType="motorcycle_motorcycle" speedFactor="0.96" vaporized=""/>
    <tripinfo id="bike129" depart="104.00" departLane="-8645086#2_0" departPos="1.70" departSpeed="0.00" departDelay="0.60" arrival="140.00" arrivalLane="8651156#1_0" arrivalPos="25.31" arrivalSpeed="6.06" duration="36.00" routeLength="184.59" waitingTime="0.00" waitingCount="0" stopTime="0.00" timeLoss="4.66" rerouteNo="1" devices="tripinfo_bike129 routing_bike129 fcd_bike129" vType="bike_bicycle" speedFactor="1.10" vaporized=""/>
    <tripinfo id="veh256" depart="67.00" departLane="8648179#2_0" departPos="4.80" departSpeed="0.00" departDelay="0.62" arrival="145.00" arrivalLane="8647494#0_1" arrivalPos="56.23" arrivalSpeed="9.74" duration="78.00" routeLength="411.51" waitingTime="27.00" waitingCount="1" stopTime="0.00" timeLoss="36.91" rerouteNo="1" devices="tripinfo_veh256 routing_veh256 fcd_veh256" vType="veh_passenger" speedFactor="0.93" vaporized=""/>
    <personinfo id="ped731" depart="146.00" type="ped_pedestrian" speedFactor="1.08" duration="2.00" waitingTime="0.00" timeLoss="0.97" traveltime="2.00">
        <walk depart="146.00" departPos="0.00" arrival="148.00" arrivalPos="0.10" duration="2.00" routeLength="1.55" timeLoss="0.97" maxSpeed="1.51"/>
    </personinfo>
    <tripinfo id="veh52" depart="14.00" departLane="8641806#2_4" departPos="5.10" departSpeed="0.00" departDelay="0.52" arrival="149.00" arrivalLane="-635014475#1_1" arrivalPos="34.47" arrivalSpeed="3.76" duration="135.00" routeLength="813.85" waitingTime="33.00" waitingCount="2" stopTime="0.00" timeLoss="54.83" rerouteNo="1" devices="tripinfo_veh52 routing_veh52 fcd_veh52" vType="veh_passenger" speedFactor="0.97" vaporized=""/>
    <tripinfo id="veh170" depart="45.00" departLane="1223509838#0_3" departPos="5.10" departSpeed="11.12" departDelay="0.92" arrival="152.00" arrivalLane="8640148#0_3" arrivalPos="37.12" arrivalSpeed="10.88" duration="107.00" routeLength="599.47" waitingTime="29.00" waitingCount="2" stopTime="0.00" timeLoss="52.37" rerouteNo="1" devices="tripinfo_veh170 routing_veh170 fcd_veh170" vType="veh_passenger" speedFactor="0.99" vaporized=""/>
    <tripinfo id="veh464" depart="121.00" departLane="825263837#2_2" departPos="5.10" departSpeed="0.00" departDelay="0.69" arrival="156.00" arrivalLane="825998783#2_3" arrivalPos="32.99" arrivalSpeed="11.81" duration="35.00" routeLength="360.25" waitingTime="0.00" waitingCount="0" stopTime="0.00" timeLoss="4.43" rerouteNo="1" devices="tripinfo_veh464 routing_veh464 fcd_veh464" vType="veh_passenger" speedFactor="1.08" vaporized=""/>
    <personinfo id="ped106" depart="22.00" type="ped_pedestrian" speedFactor="0.92" duration="137.00" waitingTime="0.00" timeLoss="34.80" traveltime="137.00">
        <walk depart="22.00" departPos="0.00" arrival="159.00" arrivalPos="12.08" duration="137.00" routeLength="130.48" timeLoss="34.80" maxSpeed="1.28"/>
    </personinfo>
    <tripinfo id="motorcycle47" depart="59.00" departLane="8638403#1_0" departPos="2.30" departSpeed="0.00" departDelay="0.51" arrival="159.00" arrivalLane="-1198318807#1_1" arrivalPos="22.40" arrivalSpeed="11.84" duration="100.00" routeLength="660.78" waitingTime="33.00" waitingCount="2" stopTime="0.00" timeLoss="52.27" rerouteNo="1" devices="tripinfo_motorcycle47 routing_motorcycle47 fcd_motorcycle47" vType="motorcycle_motorcycle" speedFactor="1.26" vaporized=""/>
    <tripinfo id="motorcycle49" depart="61.00" departLane="104210747#2_1" departPos="2.30" departSpeed="0.00" departDelay="0.02" arrival="161.00" arrivalLane="1188182971#1_2" arrivalPos="65.26" arrivalSpeed="7.72" duration="100.00" routeLength="516.98" waitingTime="30.00" waitingCount="3" stopTime="0.00" timeLoss="47.28" rerouteNo="1" devices="tripinfo_motorcycle49 routing_motorcycle49 fcd_motorcycle49" vType="motorcycle_motorcycle" speedFactor="0.87" vaporized=""/>
    <tripinfo id="veh239" depart="62.00" departLane="1223509838#0_1" departPos="5.10" departSpeed="11.80" departDelay="0.03" arrival="162.00" arrivalLane="844528872#1_2" arrivalPos="25.09" arrivalSpeed="10.91" duration="100.00" routeLength="578.69" waitingTime="30.00" waitingCount="2" stopTime="0.00" timeLoss="50.51" rerouteNo="1" devices="tripinfo_veh239 routing_veh239 fcd_veh239" vType="veh_passenger" speedFactor="1.06" vaporized=""/>
    <tripinfo id="veh48" depart="13.00" departLane="426490574#1_4" departPos="5.10" departSpeed="0.00" departDelay="0.55" arrival="164.00" arrivalLane="8866326#2_1" arrivalPos="0.46" arrivalSpeed="10.68" duration="151.00" routeLength="686.40" waitingTime="62.00" waitingCount="4" stopTime="0.00" timeLoss="92.82" rerouteNo="1" devices="tripinfo_veh48 routing_veh48 fcd_veh48" vType="veh_passenger" speedFactor="1.03" vaporized=""/>
    <tripinfo id="motorcycle62" depart="78.00" departLane="426456654_3" departPos="0.20" departSpeed="0.00" departDelay="0.84" arrival="167.00" arrivalLane="8648663#1_0" arrivalPos="36.89" arrivalSpeed="8.38" duration="89.00" routeLength="505.13" waitingTime="6.00" waitingCount="1" stopTime="0.00" timeLoss="28.27" rerouteNo="1" devices="tripinfo_motorcycle62 routing_motorcycle62 fcd_motorcycle62" vType="motorcycle_motorcycle" speedFactor="0.76" vaporized=""/>
    <tripinfo id="bike29" depart="24.00" departLane="-798341511#1_0" departPos="1.70" departSpeed="0.00" departDelay="0.75" arrival="169.00" arrivalLane="1133901649#0_0" arrivalPos="16.31" arrivalSpeed="5.35" duration="145.00" routeLength="568.43" waitingTime="26.00" waitingCount="1" stopTime="0.00" timeLoss="39.67" rerouteNo="1" devices="tripinfo_bike29 routing_bike29 fcd_bike29" vType="bike_bicycle" speedFactor="0.97" vaporized=""/>
    <tripinfo id="veh104" depart="27.00" departLane="-970425331_2" departPos="5.10" departSpeed="0.00" departDelay="0.03" arrival="169.00" arrivalLane="89641252#2_2" arrivalPos="1.66" arrivalSpeed="9.40" duration="142.00" routeLength="851.28" waitingTime="25.00" waitingCount="4" stopTime="0.00" timeLoss="55.09" rerouteNo="1" devices="tripinfo_veh104 routing_veh104 fcd_veh104" vType="veh_passenger" speedFactor="0.87" vaporized=""/>
    <tripinfo id="veh263" depart="69.00" departLane="1312615597#2_1" departPos="0.88" departSpeed="0.00" departDelay="0.81" arrival="171.00" arrivalLane="8648550#2_2" arrivalPos="34.55" arrivalSpeed="12.51" duration="102.00" routeLength="627.39" waitingTime="25.00" waitingCount="3" stopTime="0.00" timeLoss="51.17" rerouteNo="1" devices="tripinfo_veh263 routing_veh263 fcd_veh263" vType="veh_passenger" speedFactor="1.14" vaporized=""/>
    <tripinfo id="veh283" depart="74.00" departLane="591136306#0_2" departPos="5.10" departSpeed="0.00" departDelay="0.62" arrival="173.00" arrivalLane="8645216#0_0" arrivalPos="6.31" arrivalSpeed="10.59" duration="99.00" routeLength="549.14" waitingTime="32.00" waitingCount="2" stopTime="0.00" timeLoss="50.53" rerouteNo="1" devices="tripinfo_veh283 routing_veh283 fcd_veh283" vType="veh_passenger" speedFactor="1.03" vaporized=""/>
    <tripinfo id="veh138" depart="36.00" departLane="-749812082#1_0" departPos="5.10" departSpeed="0.00" departDelay="0.22" arrival="176.00" arrivalLane="8650197#1_2" arrivalPos="57.71" arrivalSpeed="11.65" duration="140.00" routeLength="972.53" waitingTime="26.00" waitingCount="2" stopTime="0.00" timeLoss="56.69" rerouteNo="1" devices="tripinfo_veh138 routing_veh138 fcd_veh138" vType="veh_passenger" speedFactor="1.07" vaporized=""/>
    <tripinfo id="veh262" depart="68.00" departLane="426488106#0_3" departPos="0.42" departSpeed="0.00" departDelay="0.07" arrival="176.00" arrivalLane="8641806#3_2" arrivalPos="52.50" arrivalSpeed="10.43" duration="108.00" routeLength="521.98" waitingTime="42.00" waitingCount="2" stopTime="0.00" timeLoss="58.62" rerouteNo="1" devices="tripinfo_veh262 routing_veh262 fcd_veh262" vType="veh_passenger" speedFactor="0.96" vaporized=""/>
    <personinfo id="ped234" depart="47.00" type="ped_pedestrian" speedFactor="0.90" duration="131.00" waitingTime="0.00" timeLoss="14.80" traveltime="131.00">
        <walk depart="47.00" departPos="0.00" arrival="178.00" arrivalPos="0.10" duration="131.00" routeLength="145.61" timeLoss="14.80" maxSpeed="1.25"/>
    </personinfo>
    <tripinfo id="bike150" depart="121.00" departLane="-8649011#0_0" departPos="1.70" departSpeed="0.00" departDelay="0.77" arrival="178.00" arrivalLane="426487627#0_1" arrivalPos="0.21" arrivalSpeed="5.43" duration="57.00" routeLength="208.61" waitingTime="5.00" waitingCount="2" stopTime="0.00" timeLoss="17.76" rerouteNo="1" devices="tripinfo_bike150 routing_bike150 fcd_bike150" vType="bike_bicycle" speedFactor="1.00" vaporized=""/>
    <tripinfo id="motorcycle10" depart="13.00" departLane="8648049#1_1" departPos="2.30" departSpeed="0.00" departDelay="0.55" arrival="180.00" arrivalLane="825263841_0" arrivalPos="138.65" arrivalSpeed="9.59" duration="167.00" routeLength="890.23" waitingTime="58.00" waitingCount="2" stopTime="0.00" timeLoss="79.76" rerouteNo="1" devices="tripinfo_motorcycle10 routing_motorcycle10 fcd_motorcycle10" vType="motorcycle_motorcycle" speedFactor="0.91" vaporized=""/>
    <tripinfo id="veh370" depart="97.00" departLane="8640148#1_3" departPos="5.10" departSpeed="0.00" departDelay="1.07" arrival="185.00" arrivalLane="8640122#1_2" arrivalPos="35.13" arrivalSpeed="12.48" duration="88.00" routeLength="616.04" waitingTime="12.00" waitingCount="2" stopTime="0.00" timeLoss="39.50" rerouteNo="1" devices="tripinfo_veh370 routing_veh370 fcd_veh370" vType="veh_passenger" speedFactor="1.14" vaporized=""/>
    <tripinfo id="bike33" depart="27.00" departLane="-834250227#5_0" departPos="1.70" departSpeed="0.00" departDelay="0.55" arrival="186.00" arrivalLane="-1120503844_0" arrivalPos="9.28" arrivalSpeed="4.52" duration="159.00" routeLength="406.69" waitingTime="36.00" waitingCount="2" stopTime="0.00" timeLoss="71.25" rerouteNo="1" devices="tripinfo_bike33 routing_bike33 fcd_bike33" vType="bike_bicycle" speedFactor="0.90" vaporized=""/>
    <tripinfo id="veh307" depart="80.00" departLane="1031513328_3" departPos="5.10" departSpeed="11.52" departDelay="0.40" arrival="189.00" arrivalLane="798341511#1_0" arrivalPos="62.08" arrivalSpeed="11.19" duration="109.00" routeLength="701.36" waitingTime="31.00" waitingCount="2" stopTime="0.00" timeLoss="49.06" rerouteNo="1" devices="tripinfo_veh307 routing_veh307 fcd_veh307" vType="veh_passenger" speedFactor="1.03" vaporized=""/>
    <tripinfo id="veh338" depart="88.00" departLane="426490741_2" departPos="5.10" departSpeed="0.00" departDelay="0.36" arrival="192.00" arrivalLane="292807008#4_1" arrivalPos="0.42" arrivalSpeed="12.11" duration="104.00" routeLength="547.50" waitingTime="39.00" waitingCount="2" stopTime="0.00" timeLoss="54.06" rerouteNo="1" devices="tripinfo_veh338 routing_veh338 fcd_veh338" vType="veh_passenger" speedFactor="0.89" vaporized=""/>
    <tripinfo id="motorcycle16" depart="20.00" departLane="825263830#3_2" departPos="2.30" departSpeed="0.00" departDelay="0.09" arrival="195.00" arrivalLane="380662088#0_0" arrivalPos="0.20" arrivalSpeed="4.74" duration="175.00" routeLength="1451.76" waitingTime="9.00" waitingCount="2" stopTime="0.00" timeLoss="45.33" rerouteNo="1" devices="tripinfo_motorcycle16 routing_motorcycle16 fcd_motorcycle16" vType="motorcycle_motorcycle" speedFactor="0.95" vaporized=""/>
    <tripinfo id="veh240" depart="63.00" departLane="-1299607131#1_0" departPos="0.20" departSpeed="0.00" departDelay="0.77" arrival="195.00" arrivalLane="-635014475#1_1" arrivalPos="34.47" arrivalSpeed="5.31" duration="132.00" routeLength="1009.62" waitingTime="17.00" waitingCount="4" stopTime="0.00" timeLoss="57.39" rerouteNo="1" devices="tripinfo_veh240 routing_veh240 fcd_veh240" vType="veh_passenger" speedFactor="1.25" vaporized=""/>
    <tripinfo id="veh13" depart="4.00" departLane="8646607#3_1" departPos="5.10" departSpeed="0.00" departDelay="0.63" arrival="197.00" arrivalLane="8641806#2_2" arrivalPos="8.31" arrivalSpeed="10.43" duration="193.00" routeLength="935.16" waitingTime="43.00" waitingCount="4" stopTime="0.00" timeLoss="109.22" rerouteNo="1" devices="tripinfo_veh13 routing_veh13 fcd_veh13" vType="veh_passenger" speedFactor="0.99" vaporized=""/>
    <tripinfo id="veh151" depart="40.00" departLane="242998461#3_1" departPos="5.10" departSpeed="0.00" departDelay="0.85" arrival="197.00" arrivalLane="8652182_1" arrivalPos="3.88" arrivalSpeed="10.10" duration="157.00" routeLength="1198.08" waitingTime="19.00" waitingCount="2" stopTime="0.00" timeLoss="51.98" rerouteNo="1" devices="tripinfo_veh151 routing_veh151 fcd_veh151" vType="veh_passenger" speedFactor="1.01" vaporized=""/>