<?xml version="1.0" encoding="UTF-8"?>

<!-- generated on 2024-10-25 18:44:24 by Eclipse SUMO GUI Version 1.21.0
-->

<sumoConfiguration xmlns:xsi="http://www.w3.org/2001/XMLSchema-instance" xsi:noNamespaceSchemaLocation="http://sumo.dlr.de/xsd/sumoConfiguration.xsd">

    <input>
        <net-file value="../../../../Windows/system32/2024-10-25-18-39-20/osm.net.xml.gz"/>
        <route-files value="../../../../Windows/system32/2024-10-25-18-39-20/osm.passenger.trips.xml"/>
        <additional-files value="../../../../Windows/system32/2024-10-25-18-39-20/osm.poly.xml.gz"/>
    </input>

    <output>
    	<tripinfo-output value="tripinfo.xml"/>
    	<summary-output value="summary.xml"/>
    </output>


    <processing>
        <ignore-route-errors value="true"/>
        <tls.actuated.jam-threshold value="30"/>
    </processing>

    <routing>
        <device.rerouting.adaptation-steps value="18"/>
        <device.rerouting.adaptation-interval value="10"/>
    </routing>

    <report>
        <verbose value="true"/>
        <duration-log.statistics value="true"/>
        <no-step-log value="true"/>
    </report>

</sumoConfiguration>
