<?xml version="1.0" encoding="UTF-8"?>

<!-- generated on 2024-10-29 23:48:40 by Eclipse SUMO sumo Version 1.21.0
<sumoConfiguration xmlns:xsi="http://www.w3.org/2001/XMLSchema-instance" xsi:noNamespaceSchemaLocation="http://sumo.dlr.de/xsd/sumoConfiguration.xsd">

    <input>
        <net-file value="../../../../Windows/system32/2024-10-29-20-01-42/osm.net.xml.gz"/>
        <route-files value="../../../../Windows/system32/2024-10-29-20-01-42/osm.bicycle.trips.xml,../../../../Windows/system32/2024-10-29-20-01-42/osm.bus.trips.xml,../../../../Windows/system32/2024-10-29-20-01-42/osm.motorcycle.trips.xml,../../../../Windows/system32/2024-10-29-20-01-42/osm.passenger.trips.xml,../../../../Windows/system32/2024-10-29-20-01-42/osm.pedestrian.rou.xml,../../../../Windows/system32/2024-10-29-20-01-42/osm.rail_urban.trips.xml,../../../../Windows/system32/2024-10-29-20-01-42/osm.truck.trips.xml"/>
        <additional-files value="C:\Users\George Jiang\Desktop\tutorial\additional.xml"/>
    </input>

    <output>
        <fcd-output value="routes.xml"/>
        <summary-output value="summary.xml"/>
        <tripinfo-output value="tripinfo.xml"/>
        <stop-output value="stops.xml"/>
        <collision-output value="collisions.xml"/>
    </output>

    <processing>
        <ignore-route-errors value="true"/>
        <tls.actuated.jam-threshold value="30"/>
    </processing>

    <routing>
        <device.rerouting.adaptation-steps value="18"/>
        <device.rerouting.adaptation-interval value="10"/>
    </routing>

    <report>
        <verbose value="true"/>
        <duration-log.statistics value="true"/>
        <no-step-log value="true"/>
    </report>

    <gui_only>
        <gui-settings-file value="../../../../Windows/system32/2024-10-29-20-01-42/osm.view.xml"/>
    </gui_only>

</sumoConfiguration>
-->

<tlsStates detectors="11728768465_0_D0.0 11728768465_0_D1.0" conditions="" xmlns:xsi="http://www.w3.org/2001/XMLSchema-instance" xsi:noNamespaceSchemaLocation="http://sumo.dlr.de/xsd/tlsstates_file.xsd">
    <tlsState time="0.00" id="11728768465" programID="0" phase="0" state="GgGg" detectors="0 0" conditions=""/>
    <tlsState time="1.00" id="11728768465" programID="0" phase="0" state="GgGg" detectors="0 0" conditions=""/>
    <tlsState time="2.00" id="11728768465" programID="0" phase="0" state="GgGg" detectors="0 0" conditions=""/>
    <tlsState time="3.00" id="11728768465" programID="0" phase="0" state="GgGg" detectors="0 0" conditions=""/>
    <tlsState time="4.00" id="11728768465" programID="0" phase="0" state="GgGg" detectors="0 0" conditions=""/>
    <tlsState time="5.00" id="11728768465" programID="0" phase="1" state="yyyy" detectors="0 0" conditions=""/>
    <tlsState time="6.00" id="11728768465" programID="0" phase="1" state="yyyy" detectors="0 0" conditions=""/>
    <tlsState time="7.00" id="11728768465" programID="0" phase="1" state="yyyy" detectors="0 0" conditions=""/>
    <tlsState time="8.00" id="11728768465" programID="0" phase="2" state="rrrr" detectors="0 0" conditions=""/>
    <tlsState time="9.00" id="11728768465" programID="0" phase="2" state="rrrr" detectors="0 0" conditions=""/>
    <tlsState time="10.00" id="11728768465" programID="0" phase="2" state="rrrr" detectors="0 0" conditions=""/>
    <tlsState time="11.00" id="11728768465" programID="0" phase="2" state="rrrr" detectors="0 0" conditions=""/>
    <tlsState time="12.00" id="11728768465" programID="0" phase="2" state="rrrr" detectors="0 0" conditions=""/>
    <tlsState time="13.00" id="11728768465" programID="0" phase="0" state="GgGg" detectors="0 0" conditions=""/>
    <tlsState time="14.00" id="11728768465" programID="0" phase="0" state="GgGg" detectors="0 0" conditions=""/>
    <tlsState time="15.00" id="11728768465" programID="0" phase="0" state="GgGg" detectors="0 0" conditions=""/>
    <tlsState time="16.00" id="11728768465" programID="0" phase="0" state="GgGg" detectors="0 0" conditions=""/>
    <tlsState time="17.00" id="11728768465" programID="0" phase="0" state="GgGg" detectors="0 0" conditions=""/>
    <tlsState time="18.00" id="11728768465" programID="0" phase="1" state="yyyy" detectors="0 0" conditions=""/>
    <tlsState time="19.00" id="11728768465" programID="0" phase="1" state="yyyy" detectors="0 0" conditions=""/>
    <tlsState time="20.00" id="11728768465" programID="0" phase="1" state="yyyy" detectors="0 0" conditions=""/>
    <tlsState time="21.00" id="11728768465" programID="0" phase="2" state="rrrr" detectors="0 0" conditions=""/>
    <tlsState time="22.00" id="11728768465" programID="0" phase="2" state="rrrr" detectors="0 0" conditions=""/>
    <tlsState time="23.00" id="11728768465" programID="0" phase="2" state="rrrr" detectors="0 0" conditions=""/>
    <tlsState time="24.00" id="11728768465" programID="0" phase="2" state="rrrr" detectors="0 0" conditions=""/>
    <tlsState time="25.00" id="11728768465" programID="0" phase="2" state="rrrr" detectors="0 0" conditions=""/>
    <tlsState time="26.00" id="11728768465" programID="0" phase="0" state="GgGg" detectors="0 0" conditions=""/>
    <tlsState time="27.00" id="11728768465" programID="0" phase="0" state="GgGg" detectors="0 0" conditions=""/>
    <tlsState time="28.00" id="11728768465" programID="0" phase="0" state="GgGg" detectors="0 0" conditions=""/>
    <tlsState time="29.00" id="11728768465" programID="0" phase="0" state="GgGg" detectors="0 0" conditions=""/>
    <tlsState time="30.00" id="11728768465" programID="0" phase="0" state="GgGg" detectors="0 0" conditions=""/>
    <tlsState time="31.00" id="11728768465" programID="0" phase="1" state="yyyy" detectors="0 0" conditions=""/>
    <tlsState time="32.00" id="11728768465" programID="0" phase="1" state="yyyy" detectors="0 0" conditions=""/>
    <tlsState time="33.00" id="11728768465" programID="0" phase="1" state="yyyy" detectors="0 0" conditions=""/>
    <tlsState time="34.00" id="11728768465" programID="0" phase="2" state="rrrr" detectors="0 0" conditions=""/>
    <tlsState time="35.00" id="11728768465" programID="0" phase="2" state="rrrr" detectors="0 0" conditions=""/>
    <tlsState time="36.00" id="11728768465" programID="0" phase="2" state="rrrr" detectors="0 0" conditions=""/>
    <tlsState time="37.00" id="11728768465" programID="0" phase="2" state="rrrr" detectors="0 0" conditions=""/>
    <tlsState time="38.00" id="11728768465" programID="0" phase="2" state="rrrr" detectors="0 0" conditions=""/>
    <tlsState time="39.00" id=0" phase="2" state="rrrr" detectors="0 0" conditions=""/>
    <tlsState time="35.00" id="11728768465" programID="0" phase="2" state="rrrr" detectors="0 0" conditions=""/>
    <tlsState time="36.00" id="11728768465" programID="0" phase="2" state="rrrr" detectors="0 0" conditions=""/>
    <tlsState time="37.00" id="11728768465" programID="0" phase="2" state="rrrr" detectors="0 0" conditions=""/>
    <tlsState time="38.00" id="11728768465" programID="0" phase="2" state="rrrr" detectors="0 0" conditions=""/>
    <tlsState time="39.00" id="11728768465" programID="0" phase="0" state="GgGg" detectors="0 0" conditions=""/>
    <tlsState time="40.00" id="11728768465" programID="0" phase="0" state="GgGg" detectors="0 0" conditions=""/>
    <tlsState time="41.00" id="11728768465" programID="0" phase="0" state="GgGg" detectors="0 0" conditions=""/>
    <tlsState time="42.00" id="11728768465" programID="0" phase="0" state="GgGg" detectors="0 0" conditions=""/>
    <tlsState time="43.00" id="11728768465" programID="0" phase="0" state="GgGg" detectors="0 0" conditions=""/>
    <tlsState time="44.00" id="11728768465" programID="0" phase="1" state="yyyy" detectors="0 0" conditions=""/>
    <tlsState time="45.00" id="11728768465" programID="0" phase="1" state="yyyy" detectors="0 0" conditions=""/>
    <tlsState time="46.00" id="11728768465" programID="0" phase="1" state="yyyy" detectors="0 0" conditions=""/>
    <tlsState time="47.00" id="11728768465" programID="0" phase="2" state="rrrr" detectors="0 0" conditions=""/>
    <tlsState time="48.00" id="11728768465" programID="0" phase="2" state="rrrr" detectors="0 0" conditions=""/>
    <tlsState time="49.00" id="11728768465" programID="0" phase="2" state="rrrr" detectors="0 0" conditions=""/>
    <tlsState time="50.00" id="11728768465" programID="0" phase="2" state="rrrr" detectors="0 0" conditions=""/>
    <tlsState time="51.00" id="11728768465" programID="0" phase="2" state="rrrr" detectors="0 0" conditions=""/>
    <tlsState time="52.00" id="11728768465" programID="0" phase="0" state="GgGg" detectors="0 0" conditions=""/>
    <tlsState time="53.00" id="11728768465" programID="0" phase="0" state="GgGg" detectors="0 0" conditions=""/>
    <tlsState time="54.00" id="11728768465" programID="0" phase="0" state="GgGg" detectors="0 0" conditions=""/>
    <tlsState time="55.00" id="11728768465" programID="0" phase="0" state="GgGg" detectors="0 0" conditions=""/>
    <tlsState time="56.00" id="11728768465" programID="0" phase="0" state="GgGg" detectors="0 0" conditions=""/>
    <tlsState time="57.00" id="11728768465" programID="0" phase="1" state="yyyy" detectors="0 0" conditions=""/>
    <tlsState time="58.00" id="11728768465" programID="0" phase="1" state="yyyy" detectors="0 0" conditions=""/>
    <tlsState time="59.00" id="11728768465" programID="0" phase="1" state="yyyy" detectors="0 0" conditions=""/>
    <tlsState time="60.00" id="11728768465" programID="0" phase="2" state="rrrr" detectors="0 0" conditions=""/>
    <tlsState time="61.00" id="11728768465" programID="0" phase="2" state="rrrr" detectors="0 0" conditions=""/>
    <tlsState time="62.00" id="11728768465" programID="0" phase="2" state="rrrr" detectors="0 0" conditions=""/>
    <tlsState time="63.00" id="11728768465" programID="0" phase="2" state="rrrr" detectors="0 0" conditions=""/>
    <tlsState time="64.00" id="11728768465" programID="0" phase="2" state="rrrr" detectors="0 0" conditions=""/>
    <tlsState time="65.00" id="11728768465" programID="0" phase="0" state="GgGg" detectors="0 0" conditions=""/>
    <tlsState time="66.00" id="11728768465" programID="0" phase="0" state="GgGg" detectors="0 0" conditions=""/>
</tlsStates>
ions=""/>
    <tlsState time="72.00" id="11728768465" programID="0" phase="1" state="yyyy" detectors="0 0" conditions=""/>
    <tlsState time="73.00" id="11728768465" programID="0" phase="2" state="rrrr" detectors="0 0" conditions=""/>
    <tlsState time="74.00" id="11728768465" programID="0" phase="2" state="rrrr" detectors="0 0" conditions=""/>
    <tlsState time="75.00" id="11728768465" programID="0" phase="2" state="rrrr" detectors="0 0" conditions=""/>
    <tlsState time="76.00" id="11728768465" programID="0" phase="2" state="rrrr" detectors="0 0" conditions=""/>
    <tlsState time="77.00" id="11728768465" programID="0" phase="2" state="rrrr" detectors="0 0" conditions=""/>
    <tlsState time="78.00" id="11728768465" programID="0" phase="0" state="GgGg" detectors="0 0" conditions=""/>
    <tlsState time="79.00" id="11728768465" programID="0" phase="0" state="GgGg" detectors="0 0" conditions=""/>
    <tlsState time="80.00" id="11728768465" programID="0" phase="0" state="GgGg" detectors="0 0" conditions=""/>
    <tlsState time="81.00" id="11728768465" programID="0" phase="0" state="GgGg" detectors="0 0" conditions=""/>
    <tlsState time="82.00" id="11728768465" programID="0" phase="0" state="GgGg" detectors="0 0" conditions=""/>
    <tlsState time="83.00" id="11728768465" programID="0" phase="1" state="yyyy" detectors="0 0" conditions=""/>
    <tlsState time="84.00" id="11728768465" programID="0" phase="1" state="yyyy" detectors="0 0" conditions=""/>
    <tlsState time="85.00" id="11728768465" programID="0" phase="1" state="yyyy" detectors="0 0" conditions=""/>
    <tlsState time="86.00" id="11728768465" programID="0" phase="2" state="rrrr" detectors="0 0" conditions=""/>
    <tlsState time="87.00" id="11728768465" programID="0" phase="2" state="rrrr" detectors="0 0" conditions=""/>
    <tlsState time="88.00" id="11728768465" programID="0" phase="2" state="rrrr" detectors="0 0" conditions=""/>
    <tlsState time="89.00" id="11728768465" programID="0" phase="2" state="rrrr" detectors="0 0" conditions=""/>
    <tlsState time="90.00" id="11728768465" programID="0" phase="2" state="rrrr" detectors="0 0" conditions=""/>
    <tlsState time="91.00" id="11728768465" programID="0" phase="0" state="GgGg" detectors="0 0" conditions=""/>
    <tlsState time="92.00" id="11728768465" programID="0" phase="0" state="GgGg" detectors="0 0" conditions=""/>
    <tlsState time="93.00" id="11728768465" programID="0" phase="0" state="GgGg" detectors="0 0" conditions=""/>
    <tlsState time="94.00" id="11728768465" programID="0" phase="0" state="GgGg" detectors="0 0" conditions=""/>
    <tlsState time="95.00" id="11728768465" programID="0" phase="0" state="GgGg" detectors="0 0" conditions=""/>
    <tlsState time="96.00" id="11728768465" programID="0" phase="1" state="yyyy" detectors="0 0" conditions=""/>
    <tlsState time="97.00" id="11728768465" programID="0" phase="1" state="yyyy" detectors="0 0" conditions=""/>
    <tlsState time="98.00" id="11728768465" programID="0" phase="1" state="yyyy" detectors="0 0" conditions=""/>
    <tlsState time="99.00" id="11728768465" programID="0" phase="2" state="rrrr" detectors="0 0" conditions=""/>
    <tlsState time="100.00" id="11728768465" programID="0" phase="2" state="rrrr" detectors="0 0" conditions=""/>
    <tlsState time="101.00" id="11728768465" programID="0" phase="2" state="rrrr" detectors="0 0" conditions=""/>
    <tlsState time="102.00" id="11728768465" programID="0" phase="2" state="rrrr" detectors="0 0" conditions=""/>
    <tlsState time="103.00" id="11728768465" programID="0" phase="2" state="rrrr" detectors="0 0" conditions=""/>
    <tlsState time="104.00" id="11728768465" programID="0" phase="0" state="GgGg" detectors="0 0" conditions=""/>
    <tlsState time="105.00" id="11728768465" programID="0" phase="0" state="GgGg" detectors="0 0" conditions=""/>
    <tlsState time="106.00" id="11728768465" programID="0" phase="0" state="GgGg" detectors="0 0" conditions=""/>
    <tlsState time="107.00" id="11728768465" programID="0" phase="0" state="GgGg" detectors="0 0" conditions=""/>
    <tlsState time="108.00" id="11728768465" programID="0" phase="0" state="GgGg" detectors="0 0" conditions=""/>
    <tlsState time="109.00" id="11728768465" programID="0" phase="1" state="yyyy" detectors="0 0" conditions=""/>
    <tlsState time="110.00" id="11728768465" programID="0" phase="1" state="yyyy" detectors="0 0" conditions=""/>
    <tlsState time="111.00" id="11728768465" programID="0" phase="1" state="yyyy" detectors="0 0" conditions=""/>
    <tlsState time="112.00" id="11728768465" programID="0" phase="2" state="rrrr" detectors="0 0" conditions=""/>
    <tlsState time="113.00" id="11728768465" programID="0" phase="2" state="rrrr" detectors="0 0" conditions=""/>
    <tlsState time="114.00" id="11728768465" programID="0" phase="2" state="rrrr" detectors="0 0" conditions=""/>
    <tlsState time="115.00" id="11728768465" programID="0" phase="2" state="rrrr" detectors="0 0" conditions=""/>
    <tlsState time="116.00" id="11728768465" programID="0" phase="2" state="rrrr" detectors="0 0" conditions=""/>
    <tlsState time="117.00" id="11728768465" programID="0" phase="0" state="GgGg" detectors="0 0" conditions=""/>
    <tlsState time="118.00" id="11728768465" programID="0" phase="0" state="GgGg" detectors="0 0" conditions=""/>
    <tlsState time="119.00" id="11728768465" programID="0" phase="0" state="GgGg" detectors="0 0" conditions=""/>
    <tlsState time="120.00" id="11728768465" programID="0" phase="0" state="GgGg" detectors="0 0" conditions=""/>
    <tlsState time="121.00" id="11728768465" programID="0" phase="0" state="GgGg" detectors="0 0" conditions=""/>
    <tlsState time="122.00" id="11728768465" programID="0" phase="1" state="yyyy" detectors="0 0" conditions=""/>
    <tlsState time="123.00" id="11728768465" programID="0" phase="1" state="yyyy" detectors="0 0" conditions=""/>
    <tlsState time="124.00" id="11728768465" programID="0" phase="1" state="yyyy" detectors="0 0" conditions=""/>
    <tlsState time="125.00" id="11728768465" programID="0" phase="2" state="rrrr" detectors="0 0" conditions=""/>
    <tlsState time="126.00" id="11728768465" programID="0" phase="2" state="rrrr" detectors="0 0" conditions=""/>
    <tlsState time="127.00" id="11728768465" programID="0" phase="2" state="rrrr" detectors="0 0" conditions=""/>
    <tlsState time="128.00" id="11728768465" programID="0" phase="2" state="rrrr" detectors="0 0" conditions=""/>
    <tlsState time="129.00" id="11728768465" programID="0" phase="2" state="rrrr" detectors="0 0" conditions=""/>
    <tlsState time="130.00" id="11728768465" programID="0" phase="0" state="GgGg" detectors="0 0" conditions=""/>
    <tlsState time="131.00" id="11728768465" programID="0" phase="0" state="GgGg" detectors="0 0" conditions=""/>
    <tlsState time="132.00" id="11728768465" programID="0" phase="0" state="GgGg" detectors="0 0" conditions=""/>
    <tlsState time="133.00" id="11728768465" programID="0" phase="0" state="GgGg" detectors="0 0" conditions=""/>
    <tlsState time="134.00" id="11728768465" programID="0" phase="0" state="GgGg" detectors="0 0" conditions=""/>
    <tlsState time="135.00" id="11728768465" programID="0" phase="1" state="yyyy" detectors="0 0" conditions=""/>
    <tlsState time="136.00" id="11728768465" programID="0" phase="1" state="yyyy" detectors="0 0" conditions=""/>
    <tlsState time="137.00" id="11728768465" programID="0" phase="1" state="yyyy" detectors="0 0" conditions=""/>
    <tlsState time="138.00" id="11728768465" programID="0" phase="2" state="rrrr" detectors="0 0" conditions=""/>
    <tlsState time="139.00" id="11728768465" programID="0" phase="2" state="rrrr" detectors="0 0" conditions=""/>
    <tlsState time="140.00" id="11728768465" programID="0" phase="2" state="rrrr" detectors="0 0" conditions=""/>
    <tlsState time="141.00" id="11728768465" programID="0" phase="2" state="rrrr" detectors="0 0" conditions=""/>
    <tlsState time="142.00" id="11728768465" programID="0" phase="2" state="rrrr" detectors="0 0" conditions=""/>
    <tlsState time="143.00" id="11728768465" programID="0" phase="0" state="GgGg" detectors="0 0" conditions=""/>
    <tlsState time="144.00" id="11728768465" programID="0" phase="0" state="GgGg" detectors="0 0" conditions=""/>
    <tlsState time="145.00" id="11728768465" programID="0" phase="0" state="GgGg" detectors="0 0" conditions=""/>
    <tlsState time="146.00" id="11728768465" programID="0" phase="0" state="GgGg" detectors="0 0" conditions=""/>
    <tlsState time="147.00" id="11728768465" programID="0" phase="0" state="GgGg" detectors="0 0" conditions=""/>
    <tlsState time="148.00" id="11728768465" programID="0" phase="1" state="yyyy" detectors="0 0" conditions=""/>
    <tlsState time="149.00" id="11728768465" programID="0" phase="1" state="yyyy" detectors="0 0" conditions=""/>
    <tlsState time="150.00" id="11728768465" programID="0" phase="1" state="yyyy" detectors="0 0" conditions=""/>
    <tlsState time="151.00" id="11728768465" programID="0" phase="2" state="rrrr" detectors="0 0" conditions=""/>
    <tlsState time="152.00" id="11728768465" programID="0" phase="2" state="rrrr" detectors="0 0" conditions=""/>
    <tlsState time="153.00" id="11728768465" programID="0" phase="2" state="rrrr" detectors="0 0" conditions=""/>
    <tlsState time="154.00" id="11728768465" programID="0" phase="2" state="rrrr" detectors="0 0" conditions=""/>
    <tlsState time="155.00" id="11728768465" programID="0" phase="2" state="rrrr" detectors="0 0" conditions=""/>
    <tlsState time="156.00" id="11728768465" programID="0" phase="0" state="GgGg" detectors="0 0" conditions=""/>
    <tlsState time="157.00" id="11728768465" programID="0" phase="0" state="GgGg" detectors="0 0" conditions=""/>
    <tlsState time="158.00" id="11728768465" programID="0" phase="0" state="GgGg" detectors="0 0" conditions=""/>
    <tlsState time="159.00" id="11728768465" programID="0" phase="0" state="GgGg" detectors="0 0" conditions=""/>
    <tlsState time="160.00" id="11728768465" programID="0" phase="0" state="GgGg" detectors="0 0" conditions=""/>
    <tlsState time="161.00" id="11728768465" programID="0" phase="1" state="yyyy" detectors="0 0" conditions=""/>
    <tlsState time="162.00" id="11728768465" programID="0" phase="1" state="yyyy" detectors="0 0" conditions=""/>
    <tlsState time="163.00" id="11728768465" programID="0" phase="1" state="yyyy" detectors="0 0" conditions=""/>
    <tlsState time="164.00" id="11728768465" programID="0" phase="2" state="rrrr" detectors="0 0" conditions=""/>
    <tlsState time="165.00" id="11728768465" programID="0" phase="2" state="rrrr" detectors="0 0" conditions=""/>
    <tlsState time="166.00" id="11728768465" programID="0" phase="2" state="rrrr" detectors="0 0" conditions=""/>
    <tlsState time="167.00" id="11728768465" programID="0" phase="2" state="rrrr" detectors="0 0" conditions=""/>
    <tlsState time="168.00" id="11728768465" programID="0" phase="2" state="rrrr" detectors="0 0" conditions=""/>
    <tlsState time="169.00" id="11728768465" programID="0" phase="0" state="GgGg" detectors="0 0" conditions=""/>
    <tlsState time="170.00" id="11728768465" programID="0" phase="0" state="GgGg" detectors="0 0" conditions=""/>
    <tlsState time="171.00" id="11728768465" programID="0" phase="0" state="GgGg" detectors="0 0" conditions=""/>
    <tlsState time="172.00" id="11728768465" programID="0" phase="0" state="GgGg" detectors="0 0" conditions=""/>
    <tlsState time="173.00" id="11728768465" programID="0" phase="0" state="GgGg" detectors="0 0" conditions=""/>
    <tlsState time="174.00" id="11728768465" programID="0" phase="1" state="yyyy" detectors="0 0" conditions=""/>
    <tlsState time="175.00" id="11728768465" programID="0" phase="1" state="yyyy" detectors="0 0" conditions=""/>
    <tlsState time="176.00" id="11728768465" programID="0" phase="1" state="yyyy" detectors="0 0" conditions=""/>
    <tlsState time="177.00" id="11728768465" programID="0" phase="2" state="rrrr" detectors="0 0" conditions=""/>
    <tlsState time="178.00" id="11728768465" programID="0" phase="2" state="rrrr" detectors="0 0" conditions=""/>
    <tlsState time="179.00" id="11728768465" programID="0" phase="2" state="rrrr" detectors="0 0" conditions=""/>
    <tlsState time="180.00" id="11728768465" programID="0" phase="2" state="rrrr" detectors="0 0" conditions=""/>
    <tlsState time="181.00" id="11728768465" programID="0" phase="2" state="rrrr" detectors="0 0" conditions=""/>
    <tlsState time="182.00" id="11728768465" programID="0" phase="0" state="GgGg" detectors="0 0" conditions=""/>
    <tlsState time="183.00" id="11728768465" programID="0" phase="0" state="GgGg" detectors="0 0" conditions=""/>
    <tlsState time="184.00" id="11728768465" programID="0" phase="0" state="GgGg" detectors="0 0" conditions=""/>
    <tlsState time="185.00" id="11728768465" programID="0" phase="0" state="GgGg" detectors="0 0" conditions=""/>
    <tlsState time="186.00" id="11728768465" programID="0" phase="0" state="GgGg" detectors="0 0" conditions=""/>
    <tlsState time="187.00" id="11728768465" programID="0" phase="1" state="yyyy" detectors="0 0" conditions=""/>
    <tlsState time="188.00" id="11728768465" programID="0" phase="1" state="yyyy" detectors="0 0" conditions=""/>
    <tlsState time="189.00" id="11728768465" programID="0" phase="1" state="yyyy" detectors="0 0" conditions=""/>
    <tlsState time="190.00" id="11728768465" programID="0" phase="2" state="rrrr" detectors="0 0" conditions=""/>
    <tlsState time="191.00" id="11728768465" programID="0" phase="2" state="rrrr" detectors="0 0" conditions=""/>
    <tlsState time="192.00" id="11728768465" programID="0" phase="2" state="rrrr" detectors="0 0" conditions=""/>
    <tlsState time="193.00" id="11728768465" programID="0" phase="2" state="rrrr" detectors="0 0" conditions=""/>
    <tlsState time="194.00" id="11728768465" programID="0" phase="2" state="rrrr" detectors="0 0" conditions=""/>
    <tlsState time="195.00" id="11728768465" programID="0" phase="0" state="GgGg" detectors="0 0" conditions=""/>
    <tlsState time="196.00" id="11728768465" programID="0" phase="0" state="GgGg" detectors="0 0" conditions=""/>
    <tlsState time="197.00" id="11728768465" programID="0" phase="0" state="GgGg" detectors="0 0" conditions=""/>
    <tlsState time="198.00" id="11728768465" programID="0" phase="0" state="GgGg" detectors="0 0" conditions=""/>
    <tlsState time="199.00" id="11728768465" programID="0" phase="0" state="GgGg" detectors="0 0" conditions=""/>
    <tlsState time="200.00" id="11728768465" programID="0" phase="1" state="yyyy" detectors="0 0" conditions=""/>
    <tlsState time="201.00" id="11728768465" programID="0" phase="1" state="yyyy" detectors="0 0" conditions=""/>
    <tlsState time="202.00" id="11728768465" programID="0" phase="1" state="yyyy" detectors="0 0" conditions=""/>
    <tlsState time="203.00" id="11728768465" programID="0" phase="2" state="rrrr" detectors="0 0" conditions=""/>
    <tlsState time="204.00" id="11728768465" programID="0" phase="2" state="rrrr" detectors="0 0" conditions=""/>
    <tlsState time="205.00" id="11728768465" programID="0" phase="2" state="rrrr" detectors="0 0" conditions=""/>
    <tlsState time="206.00" id="11728768465" programID="0" phase="2" state="rrrr" detectors="0 0" conditions=""/>
    <tlsState time="207.00" id="11728768465" programID="0" phase="2" state="rrrr" detectors="0 0" conditions=""/>
    <tlsState time="208.00" id="11728768465" programID="0" phase="0" state="GgGg" detectors="0 0" conditions=""/>
    <tlsState time="209.00" id="11728768465" programID="0" phase="0" state="GgGg" detectors="0 0" conditions=""/>
    <tlsState time="210.00" id="11728768465" programID="0" phase="0" state="GgGg" detectors="0 0" conditions=""/>
    <tlsState time="211.00" id="11728768465" programID="0" phase="0" state="GgGg" detectors="0 0" conditions=""/>
    <tlsState time="212.00" id="11728768465" programID="0" phase="0" state="GgGg" detectors="0 0" conditions=""/>
    <tlsState time="213.00" id="11728768465" programID="0" phase="1" state="yyyy" detectors="0 0" conditions=""/>
    <tlsState time="214.00" id="11728768465" programID="0" phase="1" state="yyyy" detectors="0 0" conditions=""/>
    <tlsState time="215.00" id="11728768465" programID="0" phase="1" state="yyyy" detectors="0 0" conditions=""/>
    <tlsState time="216.00" id="11728768465" programID="0" phase="2" state="rrrr" detectors="0 0" conditions=""/>
    <tlsState time="217.00" id="11728768465" programID="0" phase="2" state="rrrr" detectors="0 0" conditions=""/>
    <tlsState time="218.00" id="11728768465" programID="0" phase="2" state="rrrr" detectors="0 0" conditions=""/>
    <tlsState time="219.00" id="11728768465" programID="0" phase="2" state="rrrr" detectors="0 0" conditions=""/>
    <tlsState time="220.00" id="11728768465" programID="0" phase="2" state="rrrr" detectors="0 0" conditions=""/>
    <tlsState time="221.00" id="11728768465" programID="0" phase="0" state="GgGg" detectors="0 0" conditions=""/>
    <tlsState time="222.00" id="11728768465" programID="0" phase="0" state="GgGg" detectors="0 0" conditions=""/>
    <tlsState time="223.00" id="11728768465" programID="0" phase="0" state="GgGg" detectors="0 0" conditions=""/>
    <tlsState time="224.00" id="11728768465" programID="0" phase="0" state="GgGg" detectors="0 0" conditions=""/>
    <tlsState time="225.00" id="11728768465" programID="0" phase="0" state="GgGg" detectors="0 0" conditions=""/>
    <tlsState time="226.00" id="11728768465" programID="0" phase="1" state="yyyy" detectors="0 0" conditions=""/>
    <tlsState time="227.00" id="11728768465" programID="0" phase="1" state="yyyy" detectors="0 0" conditions=""/>
    <tlsState time="228.00" id="11728768465" programID="0" phase="1" state="yyyy" detectors="0 0" conditions=""/>
    <tlsState time="229.00" id="11728768465" programID="0" phase="2" state="rrrr" detectors="0 0" conditions=""/>
    <tlsState time="230.00" id="11728768465" programID="0" phase="2" state="rrrr" detectors="0 0" conditions=""/>
    <tlsState time="231.00" id="11728768465" programID="0" phase="2" state="rrrr" detectors="0 0" conditions=""/>
    <tlsState time="232.00" id="11728768465" programID="0" phase="2" state="rrrr" detectors="0 0" conditions=""/>
    <tlsState time="233.00" id="11728768465" programID="0" phase="2" state="rrrr" detectors="0 0" conditions=""/>
    <tlsState time="234.00" id="11728768465" programID="0" phase="0" state="GgGg" detectors="0 0" conditions=""/>
    <tlsState time="235.00" id="11728768465" programID="0" phase="0" state="GgGg" detectors="0 0" conditions=""/>
    <tlsState time="236.00" id="11728768465" programID="0" phase="0" state="GgGg" detectors="0 0" conditions=""/>
    <tlsState time="237.00" id="11728768465" programID="0" phase="0" state="GgGg" detectors="0 0" conditions=""/>
    <tlsState time="238.00" id="11728768465" programID="0" phase="0" state="GgGg" detectors="0 0" conditions=""/>
    <tlsState time="239.00" id="11728768465" programID="0" phase="1" state="yyyy" detectors="0 0" conditions=""/>
    <tlsState time="240.00" id="11728768465" programID="0" phase="1" state="yyyy" detectors="0 0" conditions=""/>
    <tlsState time="241.00" id="11728768465" programID="0" phase="1" state="yyyy" detectors="0 0" conditions=""/>
    <tlsState time="242.00" id="11728768465" programID="0" phase="2" state="rrrr" detectors="0 0" conditions=""/>
    <tlsState time="243.00" id="11728768465" programID="0" phase="2" state="rrrr" detectors="0 0" conditions=""/>
    <tlsState time="244.00" id="11728768465" programID="0" phase="2" state="rrrr" detectors="0 0" conditions=""/>
    <tlsState time="245.00" id="11728768465" programID="0" phase="2" state="rrrr" detectors="0 0" conditions=""/>