<?xml version="1.0" encoding="UTF-8"?>

<!-- generated on 2024-10-29 20:34:08 by Eclipse SUMO GUI Version 1.21.0
<sumoConfiguration xmlns:xsi="http://www.w3.org/2001/XMLSchema-instance" xsi:noNamespaceSchemaLocation="http://sumo.dlr.de/xsd/sumoConfiguration.xsd">

    <input>
        <net-file value="C:\Users\George Jiang\Desktop\tutorial\../../../../Windows/system32/2024-10-29-20-01-42/osm.net.xml.gz"/>
        <route-files value="C:\Users\George Jiang\Desktop\tutorial\../../../../Windows/system32/2024-10-29-20-01-42/osm.bicycle.trips.xml,C:\Users\George Jiang\Desktop\tutorial\../../../../Windows/system32/2024-10-29-20-01-42/osm.bus.trips.xml,C:\Users\George Jiang\Desktop\tutorial\../../../../Windows/system32/2024-10-29-20-01-42/osm.motorcycle.trips.xml,C:\Users\George Jiang\Desktop\tutorial\../../../../Windows/system32/2024-10-29-20-01-42/osm.passenger.trips.xml,C:\Users\George Jiang\Desktop\tutorial\../../../../Windows/system32/2024-10-29-20-01-42/osm.pedestrian.rou.xml,C:\Users\George Jiang\Desktop\tutorial\../../../../Windows/system32/2024-10-29-20-01-42/osm.rail_urban.trips.xml,C:\Users\George Jiang\Desktop\tutorial\../../../../Windows/system32/2024-10-29-20-01-42/osm.truck.trips.xml"/>
        <additional-files value="C:\Users\George Jiang\Desktop\tutorial\../../../../Windows/system32/2024-10-29-20-01-42/osm.poly.xml.gz"/>
    </input>

    <output>
        <fcd-output value="C:\Users\George Jiang\Desktop\tutorial\routes.xml"/>
        <summary-output value="C:\Users\George Jiang\Desktop\tutorial\summary.xml"/>
        <tripinfo-output value="C:\Users\George Jiang\Desktop\tutorial\tripinfo.xml"/>
        <stop-output value="C:\Users\George Jiang\Desktop\tutorial\stops.xml"/>
        <collision-output value="C:\Users\George Jiang\Desktop\tutorial\collisions.xml"/>
    </output>

    <processing>
        <ignore-route-errors value="true"/>
        <tls.actuated.jam-threshold value="30"/>
    </processing>

    <routing>
        <device.rerouting.adaptation-steps value="18"/>
        <device.rerouting.adaptation-interval value="10"/>
    </routing>

    <report>
        <verbose value="true"/>
        <duration-log.statistics value="true"/>
        <no-step-log value="true"/>
    </report>

    <gui_only>
        <gui-settings-file value="C:\Users\George Jiang\Desktop\tutorial\../../../../Windows/system32/2024-10-29-20-01-42/osm.view.xml"/>
    </gui_only>

</sumoConfiguration>
-->

<tripinfos xmlns:xsi="http://www.w3.org/2001/XMLSchema-instance" xsi:noNamespaceSchemaLocation="http://sumo.dlr.de/xsd/tripinfo_file.xsd">
    <personinfo id="ped67" depart="49.00" type="ped_pedestrian" speedFactor="1.07" duration="25.00" waitingTime="0.00" timeLoss="4.36" traveltime="25.00">
        <walk depart="49.00" departPos="0.00" arrival="74.00" arrivalPos="16.54" duration="25.00" routeLength="30.68" timeLoss="4.36" maxSpeed="1.49"/>
    </personinfo>
    <tripinfo id="veh42" depart="44.00" departLane="-8642454#1_0" departPos="5.10" departSpeed="11.08" departDelay="0.27" arrival="91.00" arrivalLane="426487627#0_1" arrivalPos="0.21" arrivalSpeed="10.04" duration="47.00" routeLength="428.81" waitingTime="0.00" waitingCount="0" stopTime="0.00" timeLoss="7.37" rerouteNo="1" devices="tripinfo_veh42 routing_veh42 fcd_veh42" vType="veh_passenger" speedFactor="0.99" vaporized=""/>
    <tripinfo id="motorcycle12" depart="60.00" departLane="8865426#0_0" departPos="0.20" departSpeed="11.03" departDelay="0.03" arrival="93.00" arrivalLane="380662075#2_0" arrivalPos="14.30" arrivalSpeed="10.26" duration="33.00" routeLength="293.50" waitingTime="0.00" waitingCount="0" stopTime="0.00" timeLoss="5.94" rerouteNo="1" devices="tripinfo_motorcycle12 routing_motorcycle12 fcd_motorcycle12" vType="motorcycle_motorcycle" speedFactor="0.99" vaporized=""/>
    <personinfo id="ped6" depart="5.00" type="ped_pedestrian" speedFactor="1.13" duration="90.00" waitingTime="0.00" timeLoss="12.88" traveltime="90.00">
        <walk depart="5.00" departPos="0.00" arrival="95.00" arrivalPos="2.33" duration="90.00" routeLength="120.78" timeLoss="12.88" maxSpeed="1.57"/>
    </personinfo>
    <tripinfo id="veh1" depart="2.00" departLane="1323781936#1_1" departPos="5.10" departSpeed="0.00" departDelay="0.96" arrival="98.00" arrivalLane="1154670875#1_2" arrivalPos="59.70" arrivalSpeed="10.55" duration="96.00" routeLength="571.37" waitingTime="34.00" waitingCount="1" stopTime="0.00" timeLoss="45.07" rerouteNo="1" devices="tripinfo_veh1 routing_veh1 fcd_veh1" vType="veh_passenger" speedFactor="1.03" vaporized=""/>
    <tripinfo id="motorcycle19" depart="95.00" departLane="8650349#1_1" departPos="2.30" departSpeed="0.00" departDelay="0.04" arrival="112.00" arrivalLane="8639327#2_0" arrivalPos="9.13" arrivalSpeed="10.08" duration="17.00" routeLength="148.11" waitingTime="0.00" waitingCount="0" stopTime="0.00" timeLoss="3.93" rerouteNo="1" devices="tripinfo_motorcycle19 routing_motorcycle19 fcd_motorcycle19" vType="motorcycle_motorcycle" speedFactor="1.04" vaporized=""/>
    <tripinfo id="motorcycle4" depart="20.00" departLane="426456606#0_3" departPos="2.30" departSpeed="0.00" departDelay="0.01" arrival="114.00" arrivalLane="-41940341#0_0" arrivalPos="37.31" arrivalSpeed="7.96" duration="94.00" routeLength="652.00" waitingTime="13.00" waitingCount="1" stopTime="0.00" timeLoss="27.61" rerouteNo="1" devices="tripinfo_motorcycle4 routing_motorcycle4 fcd_motorcycle4" vType="motorcycle_motorcycle" speedFactor="0.90" vaporized=""/>
    <tripinfo id="bike7" depart="22.00" departLane="816934280#4_0" departPos="1.70" departSpeed="0.00" departDelay="0.45" arrival="118.00" arrivalLane="533600032#1_0" arrivalPos="0.44" arrivalSpeed="5.81" duration="96.00" routeLength="135.72" waitingTime="60.00" waitingCount="2" stopTime="0.00" timeLoss="72.10" rerouteNo="1" devices="tripinfo_bike7 routing_bike7 fcd_bike7" vType="bike_bicycle" speedFactor="1.12" vaporized=""/>
    <tripinfo id="bike16" depart="50.00" departLane="426456618#0_0" departPos="0.20" departSpeed="5.20" departDelay="0.73" arrival="119.00" arrivalLane="8865427#5_0" arrivalPos="66.10" arrivalSpeed="5.08" duration="69.00" routeLength="239.48" waitingTime="17.00" waitingCount="1" stopTime="0.00" timeLoss="22.70" rerouteNo="1" devices="tripinfo_bike16 routing_bike16 fcd_bike16" vType="bike_bicycle" speedFactor="0.94" vaporized=""/>
    <tripinfo id="motorcycle18" depart="90.00" departLane="8649527#0_0" departPos="2.30" departSpeed="10.23" departDelay="0.04" arrival="121.00" arrivalLane="8642281#1_1" arrivalPos="13.58" arrivalSpeed="7.40" duration="31.00" routeLength="121.55" waitingTime="11.00" waitingCount="1" stopTime="0.00" timeLoss="17.86" rerouteNo="1" devices="tripinfo_motorcycle18 routing_motorcycle18 fcd_motorcycle18" vType="motorcycle_motorcycle" speedFactor="0.91" vaporized=""/>
    <personinfo id="ped118" depart="85.00" type="ped_pedestrian" speedFactor="0.82" duration="38.00" waitingTime="0.00" timeLoss="5.40" traveltime="38.00">
        <walk depart="85.00" departPos="0.00" arrival="123.00" arrivalPos="29.84" duration="38.00" routeLength="36.90" timeLoss="5.40" maxSpeed="1.13"/>
    </personinfo>
    <tripinfo id="veh31" depart="33.00" departLane="823316159#0_2" departPos="5.10" departSpeed="0.00" departDelay="0.72" arrival="123.00" arrivalLane="8651358#1_0" arrivalPos="26.50" arrivalSpeed="11.39" duration="90.00" routeLength="669.03" waitingTime="7.00" waitingCount="1" stopTime="0.00" timeLoss="31.97" rerouteNo="1" devices="tripinfo_veh31 routing_veh31 fcd_veh31" vType="veh_passenger" speedFactor="1.06" vaporized=""/>
    <tripinfo id="veh21" depart="22.00" departLane="-8866322#2_1" departPos="5.10" departSpeed="0.00" departDelay="0.14" arrival="128.00" arrivalLane="8646389#3_0" arrivalPos="64.99" arrivalSpeed="11.31" duration="106.00" routeLength="1041.27" waitingTime="0.00" waitingCount="0" stopTime="0.00" timeLoss="17.12" rerouteNo="1" devices="tripinfo_veh21 routing_veh21 fcd_veh21" vType="veh_passenger" speedFactor="1.06" vaporized=""/>
    <tripinfo id="veh23" depart="24.00" departLane="1106843296_2" departPos="5.10" departSpeed="0.00" departDelay="0.05" arrival="138.00" arrivalLane="-380662067#2_0" arrivalPos="48.38" arrivalSpeed="10.72" duration="114.00" routeLength="795.60" waitingTime="7.00" waitingCount="2" stopTime="0.00" timeLoss="37.71" rerouteNo="1" devices="tripinfo_veh23 routing_veh23 fcd_veh23" vType="veh_passenger" speedFactor="0.97" vaporized=""/>
    <tripinfo id="veh74" depart="78.00" departLane="8651340#0_1" departPos="5.10" departSpeed="0.00" departDelay="0.95" arrival="139.00" arrivalLane="-426487635#0_1" arrivalPos="17.94" arrivalSpeed="10.99" duration="61.00" routeLength="505.84" waitingTime="10.00" waitingCount="1" stopTime="0.00" timeLoss="22.00" rerouteNo="1" devices="tripinfo_veh74 routing_veh74 fcd_veh74" vType="veh_passenger" speedFactor="1.16" vaporized=""/>
    <tripinfo id="motorcycle27" depart="135.00" departLane="8641560#1_1" departPos="2.30" departSpeed="0.00" departDelay="0.06" arrival="142.00" arrivalLane="8641560#1_1" arrivalPos="54.03" arrivalSpeed="8.98" duration="7.00" routeLength="51.73" waitingTime="0.00" waitingCount="0" stopTime="0.00" timeLoss="1.52" rerouteNo="1" devices="tripinfo_motorcycle27 routing_motorcycle27 fcd_motorcycle27" vType="motorcycle_motorcycle" speedFactor="0.96" vaporized=""/>
    <tripinfo id="veh19" depart="20.00" departLane="8641560#1_2" departPos="5.10" departSpeed="0.00" departDelay="0.22" arrival="143.00" arrivalLane="138827726#0_1" arrivalPos="0.20" arrivalSpeed="11.51" duration="123.00" routeLength="1074.23" waitingTime="9.00" waitingCount="2" stopTime="0.00" timeLoss="34.65" rerouteNo="1" devices="tripinfo_veh19 routing_veh19 fcd_veh19" vType="veh_passenger" speedFactor="1.10" vaporized=""/>
    <tripinfo id="veh43" depart="45.00" departLane="426487624#1_1" departPos="5.10" departSpeed="0.00" departDelay="0.23" arrival="151.00" arrivalLane="-8866322#2_1" arrivalPos="51.27" arrivalSpeed="11.39" duration="106.00" routeLength="596.93" waitingTime="31.00" waitingCount="3" stopTime="0.00" timeLoss="55.61" rerouteNo="1" devices="tripinfo_veh43 routing_veh43 fcd_veh43" vType="veh_passenger" speedFactor="1.07" vaporized=""/>
    <tripinfo id="motorcycle1" depart="5.00" departLane="1117928632#0_0" departPos="2.30" departSpeed="0.00" departDelay="0.00" arrival="152.00" arrivalLane="1166056604#1_1" arrivalPos="24.37" arrivalSpeed="10.09" duration="147.00" routeLength="1050.47" waitingTime="15.00" waitingCount="4" stopTime="0.00" timeLoss="51.79" rerouteNo="1" devices="tripinfo_motorcycle1 routing_motorcycle1 fcd_motorcycle1" vType="motorcycle_motorcycle" speedFactor="1.01" vaporized=""/>
    <tripinfo id="motorcycle6" depart="30.00" departLane="289468264#1_2" departPos="2.30" departSpeed="0.00" departDelay="0.01" arrival="152.00" arrivalLane="104210747#5_2" arrivalPos="34.64" arrivalSpeed="11.72" duration="122.00" routeLength="641.71" waitingTime="51.00" waitingCount="3" stopTime="0.00" timeLoss="71.17" rerouteNo="1" devices="tripinfo_motorcycle6 routing_motorcycle6 fcd_motorcycle6" vType="motorcycle_motorcycle" speedFactor="1.14" vaporized=""/>
    <tripinfo id="veh39" depart="45.00" departLane="8866322#1_1" departPos="5.10" departSpeed="0.00" departDelay="4.39" arrival="152.00" arrivalLane="8650619#1_1" arrivalPos="39.86" arrivalSpeed="9.18" duration="107.00" routeLength="475.24" waitingTime="25.00" waitingCount="1" stopTime="0.00" timeLoss="60.44" rerouteNo="1" devices="tripinfo_veh39 routing_veh39 fcd_veh39" vType="veh_passenger" speedFactor="0.92" vaporized=""/>
    <tripinfo id="veh73" depart="77.00" departLane="426472927#1_4" departPos="5.10" departSpeed="0.00" departDelay="0.99" arrival="155.00" arrivalLane="8650619#1_1" arrivalPos="39.86" arrivalSpeed="12.39" duration="78.00" routeLength="493.56" waitingTime="5.00" waitingCount="3" stopTime="0.00" timeLoss="36.91" rerouteNo="1" devices="tripinfo_veh73 routing_veh73 fcd_veh73" vType="veh_passenger" speedFactor="1.11" vaporized=""/>
    <tripinfo id="bike1" depart="4.00" departLane="-8645556#1_0" departPos="1.70" departSpeed="5.89" departDelay="0.92" arrival="158.00" arrivalLane="-8644647#0_0" arrivalPos="70.43" arrivalSpeed="5.52" duration="154.00" routeLength="776.29" waitingTime="5.00" waitingCount="1" stopTime="0.00" timeLoss="21.39" rerouteNo="1" devices="tripinfo_bike1 routing_bike1 fcd_bike1" vType="bike_bicycle" speedFactor="1.06" vaporized=""/>
    <tripinfo id="motorcycle26" depart="130.00" departLane="1106843295#0_3" departPos="2.30" departSpeed="0.00" departDelay="0.06" arrival="158.00" arrivalLane="8865420#3_1" arrivalPos="0.58" arrivalSpeed="10.66" duration="28.00" routeLength="260.17" waitingTime="0.00" waitingCount="0" stopTime="0.00" timeLoss="5.74" rerouteNo="1" devices="tripinfo_motorcycle26 routing_motorcycle26 fcd_motorcycle26" vType="motorcycle_motorcycle" speedFactor="1.06" vaporized=""/>
    <tripinfo id="veh44" depart="46.00" departLane="8641560#1_2" departPos="5.10" departSpeed="0.00" departDelay="0.19" arrival="162.00" arrivalLane="138827679#0_0" arrivalPos="0.20" arrivalSpeed="10.33" duration="116.00" routeLength="615.34" waitingTime="32.00" waitingCount="4" stopTime="0.00" timeLoss="56.10" rerouteNo="1" devices="tripinfo_veh44 routing_veh44 fcd_veh44" vType="veh_passenger" speedFactor="0.94" vaporized=""/>
    <tripinfo id="motorcycle8" depart="43.00" departLane="-8866322#2_1" departPos="2.30" departSpeed="0.00" departDelay="3.02" arrival="163.00" arrivalLane="8640516#1_0" arrivalPos="14.80" arrivalSpeed="9.29" duration="120.00" routeLength="977.20" waitingTime="0.00" waitingCount="0" stopTime="0.00" timeLoss="26.54" rerouteNo="1" devices="tripinfo_motorcycle8 routing_motorcycle8 fcd_motorcycle8" vType="motorcycle_motorcycle" speedFactor="0.97" vaporized=""/>
    <tripinfo id="veh7" depart="8.00" departLane="1106843295#0_3" departPos="5.10" departSpeed="0.00" departDelay="0.71" arrival="170.00" arrivalLane="823316160_2" arrivalPos="12.17" arrivalSpeed="8.85" duration="162.00" routeLength="590.06" waitingTime="81.00" waitingCount="4" stopTime="0.00" timeLoss="109.34" rerouteNo="1" devices="tripinfo_veh7 routing_veh7 fcd_veh7" vType="veh_passenger" speedFactor="1.02" vaporized=""/>
</tripinfos>
