<?xml version="1.0" encoding="UTF-8"?>

<!-- generated on 2024-10-29 23:48:40 by Eclipse SUMO sumo Version 1.21.0
<sumoConfiguration xmlns:xsi="http://www.w3.org/2001/XMLSchema-instance" xsi:noNamespaceSchemaLocation="http://sumo.dlr.de/xsd/sumoConfiguration.xsd">

    <input>
        <net-file value="../../../../Windows/system32/2024-10-29-20-01-42/osm.net.xml.gz"/>
        <route-files value="../../../../Windows/system32/2024-10-29-20-01-42/osm.bicycle.trips.xml,../../../../Windows/system32/2024-10-29-20-01-42/osm.bus.trips.xml,../../../../Windows/system32/2024-10-29-20-01-42/osm.motorcycle.trips.xml,../../../../Windows/system32/2024-10-29-20-01-42/osm.passenger.trips.xml,../../../../Windows/system32/2024-10-29-20-01-42/osm.pedestrian.rou.xml,../../../../Windows/system32/2024-10-29-20-01-42/osm.rail_urban.trips.xml,../../../../Windows/system32/2024-10-29-20-01-42/osm.truck.trips.xml"/>
        <additional-files value="C:\Users\George Jiang\Desktop\tutorial\additional.xml"/>
    </input>

    <output>
        <fcd-output value="routes.xml"/>
        <summary-output value="summary.xml"/>
        <tripinfo-output value="tripinfo.xml"/>
        <stop-output value="stops.xml"/>
        <collision-output value="collisions.xml"/>
    </output>

    <processing>
        <ignore-route-errors value="true"/>
        <tls.actuated.jam-threshold value="30"/>
    </processing>

    <routing>
        <device.rerouting.adaptation-steps value="18"/>
        <device.rerouting.adaptation-interval value="10"/>
    </routing>

    <report>
        <verbose value="true"/>
        <duration-log.statistics value="true"/>
        <no-step-log value="true"/>
    </report>

    <gui_only>
        <gui-settings-file value="../../../../Windows/system32/2024-10-29-20-01-42/osm.view.xml"/>
    </gui_only>

</sumoConfiguration>
-->

<tripinfos xmlns:xsi="http://www.w3.org/2001/XMLSchema-instance" xsi:noNamespaceSchemaLocation="http://sumo.dlr.de/xsd/tripinfo_file.xsd">
    <personinfo id="ped67" depart="49.00" type="ped_pedestrian" speedFactor="1.07" duration="25.00" waitingTime="0.00" timeLoss="4.36" traveltime="25.00">
        <walk depart="49.00" departPos="0.00" arrival="74.00" arrivalPos="16.54" duration="25.00" routeLength="30.68" timeLoss="4.36" maxSpeed="1.49"/>
    </personinfo>
    <tripinfo id="veh42" depart="44.00" departLane="-8642454#1_0" departPos="5.10" departSpeed="11.08" departDelay="0.27" arrival="91.00" arrivalLane="426487627#0_1" arrivalPos="0.21" arrivalSpeed="10.04" duration="47</tripinfos>
th="428.81" waitingTime="0.00" waitingCount="0" stopTime="0.00" timeLoss="7.37" rerouteNo="1" devices="tripinfo_veh42 routing_veh42 fcd_veh42" vType="veh_passenger" speedFactor="0.99" vaporized=""/>
    <tripinfo id="motorcycle12" depart="60.00" departLane="8865426#0_0" departPos="0.20" departSpeed="11.03" departDelay="0.03" arrival="93.00" arrivalLane="380662075#2_0" arrivalPos="14.30" arrivalSpeed="10.26" duration="33.00" routeLength="293.50" waitingTime="0.00" waitingCount="0" stopTime="0.00" timeLoss="5.94" rerouteNo="1" devices="tripinfo_motorcycle12 routing_motorcycle12 fcd_motorcycle12" vType="motorcycle_motorcycle" speedFactor="0.99" vaporized=""/>
    <personinfo id="ped6" depart="5.00" type="ped_pedestrian" speedFactor="1.13" duration="90.00" waitingTime="0.00" timeLoss="12.88" traveltime="90.00">
        <walk depart="5.00" departPos="0.00" arrival="95.00" arrivalPos="2.33" duration="90.00" routeLength="120.78" timeLoss="12.88" maxSpeed="1.57"/>
    </personinfo>
    <tripinfo id="veh1" depart="2.00" departLane="1323781936#1_1" departPos="5.10" departSpeed="0.00" departDelay="0.96" arrival="98.00" arrivalLane="1154670875#1_2" arrivalPos="59.70" arrivalSpeed="10.55" duration="96.00" routeLength="571.37" waitingTime="34.00" waitingCount="1" stopTime="0.00" timeLoss="45.07" rerouteNo="1" devices="tripinfo_veh1 routing_veh1 fcd_veh1" vType="veh_passenger" speedFactor="1.03" vaporized=""/>
    <tripinfo id="motorcycle19" depart="95.00" departLane="8650349#1_1" departPos="2.30" departSpeed="0.00" departDelay="0.04" arrival="112.00" arrivalLane="8639327#2_0" arrivalPos="9.13" arrivalSpeed="10.08" duration="17.00" routeLength="148.11" waitingTime="0.00" waitingCount="0" stopTime="0.00" timeLoss="3.93" rerouteNo="1" devices="tripinfo_motorcycle19 routing_motorcycle19 fcd_motorcycle19" vType="motorcycle_motorcycle" speedFactor="1.04" vaporized=""/>
    <tripinfo id="motorcycle4" depart="20.00" departLane="426456606#0_3" departPos="2.30" departSpeed="0.00" departDelay="0.01" arrival="114.00" arrivalLane="-41940341#0_0" arrivalPos="37.31" arrivalSpeed="7.96" duration="94.00" routeLength="652.00" waitingTime="13.00" waitingCount="1" stopTime="0.00" timeLoss="27.61" rerouteNo="1" devices="tripinfo_motorcycle4 routing_motorcycle4 fcd_motorcycle4" vType="motorcycle_motorcycle" speedFactor="0.90" vaporized=""/>
    <tripinfo id="bike7" depart="22.00" departLane="816934280#4_0" departPos="1.70" departSpeed="0.00" departDelay="0.45" arrival="118.00" arrivalLane="533600032#1_0" arrivalPos="0.44" arrivalSpeed="5.81" duration="96.00" routeLength="135.72" waitingTime="60.00" waitingCount="2" stopTime="0.00" timeLoss="72.10" rerouteNo="1" devices="tripinfo_bike7 routing_bike7 fcd_bike7" vType="bike_bicycle" speedFactor="1.12" vaporized=""/>
    <tripinfo id="bike16" depart="50.00" departLane="426456618#0_0" departPos="0.20" departSpeed="5.20" departDelay="0.73" arrival="119.00" arrivalLane="8865427#5_0" arrivalPos="66.10" arrivalSpeed="5.08" duration="69.00" routeLength="239.48" waitingTime="17.00" waitingCount="1" stopTime="0.00" timeLoss="22.70" rerouteNo="1" devices="tripinfo_bike16 routing_bike16 fcd_bike16" vType="bike_bicycle" speedFactor="0.94" vaporized=""/>
    <tripinfo id="motorcycle18" depart="90.00" departLane="8649527#0_0" departPos="2.30" departSpeed="10.23" departDelay="0.04" arrival="121.00" arrivalLane="8642281#1_1" arrivalPos="13.58" arrivalSpeed="7.40" duration="31.00" routeLength="121.55" waitingTime="11.00" waitingCount="1" stopTime="0.00" timeLoss="17.86" rerouteNo="1" devices="tripinfo_motorcycle18 routing_motorcycle18 fcd_motorcycle18" vType="motorcycle_motorcycle" speedFactor="0.91" vaporized=""/>
    <personinfo id="ped118" depart="85.00" type="ped_pedestrian" speedFactor="0.82" duration="38.00" waitingTime="0.00" timeLoss="5.40" traveltime="38.00">
        <walk depart="85.00" departPos="0.00" arrival="123.00" arrivalPos="29.84" duration="38.00" routeLength="36.90" timeLoss="5.40" maxSpeed="1.13"/>
    </personinfo>
    <tripinfo id="veh31" depart="33.00" departLane="823316159#0_2" departPos="5.10" departSpeed="0.00" departDelay="0.72" arrival="123.00" arrivalLane="8651358#1_0" arrivalPos="26.50" arrivalSpeed="11.39" duration="90.00" routeLength="669.03" waitingTime="7.00" waitingCount="1" stopTime="0.00" timeLoss="31.97" rerouteNo="1" devices="tripinfo_veh31 routing_veh31 fcd_veh31" vType="veh_passenger" speedFactor="1.06" vaporized=""/>
    <tripinfo id="veh21" depart="22.00" departLane="-8866322#2_1" departPos="5.10" departSpeed="0.00" departDelay="0.14" arrival="128.00" arrivalLane="8646389#3_0" arrivalPos="64.99" arrivalSpeed="11.31" duration="106.00" routeLength="1041.27" waitingTime="0.00" waitingCount="0" stopTime="0.00" timeLoss="17.12" rerouteNo="1" devices="tripinfo_veh21 routing_veh21 fcd_veh21" vType="veh_passenger" speedFactor="1.06" vaporized=""/>
    <tripinfo id="veh23" depart="24.00" departLane="1106843296_2" departPos="5.10" departSpeed="0.00" departDelay="0.05" arrival="138.00" arrivalLane="-380662067#2_0" arrivalPos="48.38" arrivalSpeed="10.72" duration="114.00" routeLength="795.60" waitingTime="7.00" waitingCount="2" stopTime="0.00" timeLoss="37.71" rerouteNo="1" devices="tripinfo_veh23 routing_veh23 fcd_veh23" vType="veh_passenger" speedFactor="0.97" vaporized=""/>
    <tripinfo id="veh74" depart="78.00" departLane="8651340#0_1" departPos="5.10" departSpeed="0.00" departDelay="0.95" arrival="139.00" arrivalLane="-426487635#0_1" arrivalPos="17.94" arrivalSpeed="10.99" duration="61.00" routeLength="505.84" waitingTime="10.00" waitingCount="1" stopTime="0.00" timeLoss="22.00" rerouteNo="1" devices="tripinfo_veh74 routing_veh74 fcd_veh74" vType="veh_passenger" speedFactor="1.16" vaporized=""/>
    <tripinfo id="motorcycle27" depart="135.00" departLane="8641560#1_1" departPos="2.30" departSpeed="0.00" departDelay="0.06" arrival="142.00" arrivalLane="8641560#1_1" arrivalPos="54.03" arrivalSpeed="8.98" duration="7.00" routeLength="51.73" waitingTime="0.00" waitingCount="0" stopTime="0.00" timeLoss="1.52" rerouteNo="1" devices="tripinfo_motorcycle27 routing_motorcycle27 fcd_motorcycle27" vType="motorcycle_motorcycle" speedFactor="0.96" vaporized=""/>
    <tripinfo id="veh19" depart="20.00" departLane="8641560#1_2" departPos="5.10" departSpeed="0.00" departDelay="0.22" arrival="143.00" arrivalLane="138827726#0_1" arrivalPos="0.20" arrivalSpeed="11.51" duration="123.00" routeLength="1074.23" waitingTime="9.00" waitingCount="2" stopTime="0.00" timeLoss="34.65" rerouteNo="1" devices="tripinfo_veh19 routing_veh19 fcd_veh19" vType="veh_passenger" speedFactor="1.10" vaporized=""/>
    <tripinfo id="veh43" depart="45.00" departLane="426487624#1_1" departPos="5.10" departSpeed="0.00" departDelay="0.23" arrival="151.00" arrivalLane="-8866322#2_1" arrivalPos="51.27" arrivalSpeed="11.39" duration="106.00" routeLength="596.93" waitingTime="31.00" waitingCount="3" stopTime="0.00" timeLoss="55.61" rerouteNo="1" devices="tripinfo_veh43 routing_veh43 fcd_veh43" vType="veh_passenger" speedFactor="1.07" vaporized=""/>
    <tripinfo id="motorcycle1" depart="5.00" departLane="1117928632#0_0" departPos="2.30" departSpeed="0.00" departDelay="0.00" arrival="152.00" arrivalLane="1166056604#1_1" arrivalPos="24.37" arrivalSpeed="10.09" duration="147.00" routeLength="1050.47" waitingTime="15.00" waitingCount="4" stopTime="0.00" timeLoss="51.79" rerouteNo="1" devices="tripinfo_motorcycle1 routing_motorcycle1 fcd_motorcycle1" vType="motorcycle_motorcycle" speedFactor="1.01" vaporized=""/>
    <tripinfo id="motorcycle6" depart="30.00" departLane="289468264#1_2" departPos="2.30" departSpeed="0.00" departDelay="0.01" arrival="152.00" arrivalLane="104210747#5_2" arrivalPos="34.64" arrivalSpeed="11.72" duration="122.00" routeLength="641.71" waitingTime="51.00" waitingCount="3" stopTime="0.00" timeLoss="71.17" rerouteNo="1" devices="tripinfo_motorcycle6 routing_motorcycle6 fcd_motorcycle6" vType="motorcycle_motorcycle" speedFactor="1.14" vaporized=""/>
    <tripinfo id="veh39" depart="45.00" departLane="8866322#1_1" departPos="5.10" departSpeed="0.00" departDelay="4.39" arrival="152.00" arrivalLane="8650619#1_1" arrivalPos="39.86" arrivalSpeed="9.18" duration="107.00" routeLength="475.24" waitingTime="25.00" waitingCount="1" stopTime="0.00" timeLoss="60.44" rerouteNo="1" devices="tripinfo_veh39 routing_veh39 fcd_veh39" vType="veh_passenger" speedFactor="0.92" vaporized=""/>
    <tripinfo id="veh73" depart="77.00" departLane="426472927#1_4" departPos="5.10" departSpeed="0.00" departDelay="0.99" arrival="155.00" arrivalLane="8650619#1_1" arrivalPos="39.86" arrivalSpeed="12.39" duration="78.00" routeLength="493.56" waitingTime="5.00" waitingCount="3" stopTime="0.00" timeLoss="36.91" rerouteNo="1" devices="tripinfo_veh73 routing_veh73 fcd_veh73" vType="veh_passenger" speedFactor="1.11" vaporized=""/>
    <tripinfo id="bike1" depart="4.00" departLane="-8645556#1_0" departPos="1.70" departSpeed="5.89" departDelay="0.92" arrival="158.00" arrivalLane="-8644647#0_0" arrivalPos="70.43" arrivalSpeed="5.52" duration="154.00" routeLength="776.29" waitingTime="5.00" waitingCount="1" stopTime="0.00" timeLoss="21.39" rerouteNo="1" devices="tripinfo_bike1 routing_bike1 fcd_bike1" vType="bike_bicycle" speedFactor="1.06" vaporized=""/>
    <tripinfo id="motorcycle26" depart="130.00" departLane="1106843295#0_3" departPos="2.30" departSpeed="0.00" departDelay="0.06" arrival="158.00" arrivalLane="8865420#3_1" arrivalPos="0.58" arrivalSpeed="10.66" duration="28.00" routeLength="260.17" waitingTime="0.00" waitingCount="0" stopTime="0.00" timeLoss="5.74" rerouteNo="1" devices="tripinfo_motorcycle26 routing_motorcycle26 fcd_motorcycle26" vType="motorcycle_motorcycle" speedFactor="1.06" vaporized=""/>
    <tripinfo id="veh44" depart="46.00" departLane="8641560#1_2" departPos="5.10" departSpeed="0.00" departDelay="0.19" arrival="162.00" arrivalLane="138827679#0_0" arrivalPos="0.20" arrivalSpeed="10.33" duration="116.00" routeLength="615.34" waitingTime="32.00" waitingCount="4" stopTime="0.00" timeLoss="56.10" rerouteNo="1" devices="tripinfo_veh44 routing_veh44 fcd_veh44" vType="veh_passenger" speedFactor="0.94" vaporized=""/>
    <tripinfo id="motorcycle8" depart="43.00" departLane="-8866322#2_1" departPos="2.30" departSpeed="0.00" departDelay="3.02" arrival="163.00" arrivalLane="8640516#1_0" arrivalPos="14.80" arrivalSpeed="9.29" duration="120.00" routeLength="977.20" waitingTime="0.00" waitingCount="0" stopTime="0.00" timeLoss="26.54" rerouteNo="1" devices="tripinfo_motorcycle8 routing_motorcycle8 fcd_motorcycle8" vType="motorcycle_motorcycle" speedFactor="0.97" vaporized=""/>
    <tripinfo id="veh7" depart="8.00" departLane="1106843295#0_3" departPos="5.10" departSpeed="0.00" departDelay="0.71" arrival="170.00" arrivalLane="823316160_2" arrivalPos="12.17" arrivalSpeed="8.85" duration="162.00" routeLength="590.06" waitingTime="81.00" waitingCount="4" stopTime="0.00" timeLoss="109.34" rerouteNo="1" devices="tripinfo_veh7 routing_veh7 fcd_veh7" vType="veh_passenger" speedFactor="1.02" vaporized=""/>
    <tripinfo id="veh64" depart="67.00" departLane="-426487635#0_1" departPos="5.10" departSpeed="0.00" departDelay="0.36" arrival="179.00" arrivalLane="8647891#1_0" arrivalPos="45.85" arrivalSpeed="13.38" duration="112.00" routeLength="902.05" waitingTime="24.00" waitingCount="1" stopTime="0.00" timeLoss="44.77" rerouteNo="1" devices="tripinfo_veh64 routing_veh64 fcd_veh64" vType="veh_passenger" speedFactor="1.23" vaporized=""/>
    <tripinfo id="veh0" depart="0.00" departLane="8639327#2_0" departPos="5.10" departSpeed="0.00" departDelay="0.00" arrival="182.00" arrivalLane="-289468264#1_2" arrivalPos="3.04" arrivalSpeed="11.32" duration="182.00" routeLength="1023.91" waitingTime="72.00" waitingCount="3" stopTime="0.00" timeLoss="96.20" rerouteNo="1" devices="tripinfo_veh0 routing_veh0 fcd_veh0" vType="veh_passenger" speedFactor="1.08" vaporized=""/>
    <tripinfo id="bike10" depart="31.00" departLane="8646520#3_0" departPos="1.70" departSpeed="0.00" departDelay="0.21" arrival="182.00" arrivalLane="8637728#2_0" arrivalPos="0.20" arrivalSpeed="3.85" duration="151.00" routeLength="741.18" waitingTime="0.00" waitingCount="0" stopTime="0.00" timeLoss="11.85" rerouteNo="1" devices="tripinfo_bike10 routing_bike10 fcd_bike10" vType="bike_bicycle" speedFactor="0.99" vaporized=""/>
    <tripinfo id="bike53" depart="164.00" departLane="-138827709#1_0" departPos="1.70" departSpeed="6.04" departDelay="0.80" arrival="182.00" arrivalLane="138827709#1_0" arrivalPos="38.30" arrivalSpeed="6.02" duration="18.00" routeLength="93.12" waitingTime="0.00" waitingCount="0" stopTime="0.00" timeLoss="1.38" rerouteNo="1" devices="tripinfo_bike53 routing_bike53 fcd_bike53" vType="bike_bicycle" speedFactor="1.09" vaporized=""/>
    <personinfo id="ped111" depart="80.00" type="ped_pedestrian" speedFactor="0.98" duration="104.00" waitingTime="0.00" timeLoss="13.02" traveltime="104.00">
        <walk depart="80.00" departPos="0.00" arrival="184.00" arrivalPos="19.59" duration="104.00" routeLength="123.91" timeLoss="13.02" maxSpeed="1.36"/>
    </personinfo>
    <personinfo id="ped39" depart="28.00" type="ped_pedestrian" speedFactor="1.05" duration="159.00" waitingTime="0.00" timeLoss="18.83" traveltime="159.00">
        <walk depart="28.00" departPos="0.00" arrival="187.00" arrivalPos="12.11" duration="159.00" routeLength="204.67" timeLoss="18.83" maxSpeed="1.46"/>
    </personinfo>
    <personinfo id="ped38" depart="28.00" type="ped_pedestrian" speedFactor="0.87" duration="161.00" waitingTime="0.00" timeLoss="33.67" traveltime="161.00">
        <walk depart="28.00" departPos="0.00" arrival="189.00" arrivalPos="3.30" duration="161.00" routeLength="153.28" timeLoss="33.67" maxSpeed="1.20"/>
    </personinfo>
    <tripinfo id="veh15" depart="16.00" departLane="8649075#1_2" departPos="5.10" departSpeed="0.00" departDelay="0.38" arrival="190.00" arrivalLane="8636143_0" arrivalPos="40.28" arrivalSpeed="10.71" duration="174.00" routeLength="1073.57" waitingTime="32.00" waitingCount="2" stopTime="0.00" timeLoss="82.77" rerouteNo="1" devices="tripinfo_veh15 routing_veh15 fcd_veh15" vType="veh_passenger" speedFactor="1.06" vaporized=""/>
    <tripinfo id="motorcycle31" depart="155.00" departLane="825494585#2_0" departPos="2.30" departSpeed="0.00" departDelay="0.07" arrival="192.00" arrivalLane="8646520#2_0" arrivalPos="36.59" arrivalSpeed="9.22" duration="37.00" routeLength="347.87" waitingTime="0.00" waitingCount="0" stopTime="0.00" timeLoss="5.74" rerouteNo="1" devices="tripinfo_motorcycle31 routing_motorcycle31 fcd_motorcycle31" vType="motorcycle_motorcycle" speedFactor="1.03" vaporized=""/>
    <tripinfo id="veh18" depart="19.00" departLane="825494585#2_0" departPos="5.10" departSpeed="0.00" departDelay="0.26" arrival="192.00" arrivalLane="-1196041856_2" arrivalPos="22.36" arrivalSpeed="11.26" duration="173.00" routeLength="1309.31" waitingTime="13.00" waitingCount="2" stopTime="0.00" timeLoss="67.89" rerouteNo="1" devices="tripinfo_veh18 routing_veh18 fcd_veh18" vType="veh_passenger" speedFactor="1.12" vaporized=""/>
    <tripinfo id="veh16" depart="17.00" departLane="8642149#0_2" departPos="2.80" departSpeed="0.00" departDelay="0.34" arrival="193.00" arrivalLane="-426484913#3_1" arrivalPos="43.25" arrivalSpeed="11.12" duration="176.00" routeLength="843.87" waitingTime="74.00" waitingCount="4" stopTime="0.00" timeLoss="100.06" rerouteNo="1" devices="tripinfo_veh16 routing_veh16 fcd_veh16" vType="veh_passenger" speedFactor="1.01" vaporized=""/>
    <tripinfo id="veh36" depart="38.00" departLane="8647432#1_1" departPos="5.10" departSpeed="0.00" departDelay="0.52" arrival="196.00" arrivalLane="426484925#2_1" arrivalPos="32.35" arrivalSpeed="13.73" duration="158.00" routeLength="1059.63" waitingTime="35.00" waitingCount="4" stopTime="0.00" timeLoss="70.86" rerouteNo="1" devices="tripinfo_veh36 routing_veh36 fcd_veh36" vType="veh_passenger" speedFactor="1.10" vaporized=""/>
    <tripinfo id="motorcycle9" depart="45.00" departLane="8648527#0_0" departPos="2.30" departSpeed="15.04" departDelay="0.02" arrival="197.00" arrivalLane="-1196041856_1" arrivalPos="22.36" arrivalSpeed="12.02" duration="152.00" routeLength="761.03" waitingTime="69.00" waitingCount="3" stopTime="0.00" timeLoss="89.39" rerouteNo="1" devices="tripinfo_motorcycle9 routing_motorcycle9 fcd_motorcycle9" vType="motorcycle_motorcycle" speedFactor="1.08" vaporized=""/>
    <tripinfo id="veh69" depart="72.00" departLane="8650349#1_1" departPos="5.10" departSpeed="0.00" departDelay="0.16" arrival="199.00" arrivalLane="1317061159_3" arrivalPos="12.80" arrivalSpeed="5.23" duration="127.00" routeLength="443.09" waitingTime="67.00" waitingCount="3" stopTime="0.00" timeLoss="87.95" rerouteNo="1" devices="tripinfo_veh69 routing_veh69 fcd_veh69" vType="veh_passenger" speedFactor="1.02" vaporized=""/>
    <tripinfo id="veh40" depart="42.00" departLane="-138827709#1_0" departPos="5.10" departSpeed="16.35" departDelay="0.35" arrival="200.00" arrivalLane="8645388#3_0" arrivalPos="59.00" arrivalSpeed="12.36" duration="158.00" routeLength="1166.66" waitingTime="17.00" waitingCount="4" stopTime="0.00" timeLoss="66.98" rerouteNo="1" devices="tripinfo_veh40 routing_veh40 fcd_veh40" vType="veh_passenger" speedFactor="1.18" vaporized=""/>
    <tripinfo id="veh47" depart="49.00" departLane="863038355#0_1" departPos="5.10" departSpeed="0.00" departDelay="0.06" arrival="200.00" arrivalLane="985552044#7_1" arrivalPos="37.81" arrivalSpeed="10.84" duration="151.00" routeLength="571.50" waitingTime="84.00" waitingCount="2" stopTime="0.00" timeLoss="100.04" rerouteNo="1" devices="tripinfo_veh47 routing_veh47 fcd_veh47" vType="veh_passenger" speedFactor="1.02" vaporized=""/>
    <personinfo id="ped22" depart="16.00" type="ped_pedestrian" speedFactor="0.71" duration="186.00" waitingTime="0.00" timeLoss="37.42" traveltime="186.00">
        <walk depart="16.00" departPos="0.00" arrival="202.00" arrivalPos="0.71" duration="186.00" routeLength="146.29" timeLoss="37.42" maxSpeed="0.98"/>
    </personinfo>
    <personinfo id="ped35" depart="26.00" type="ped_pedestrian" speedFactor="0.96" duration="178.00" waitingTime="0.00" timeLoss="24.84" traveltime="178.00">
        <walk depart="26.00" departPos="0.00" arrival="204.00" arrivalPos="38.33" duration="178.00" routeLength="205.11" timeLoss="24.84" maxSpeed="1.34"/>
    </personinfo>
    <tripinfo id="bike4" depart="13.00" departLane="1166056604#1_0" departPos="1.70" departSpeed="0.00" departDelay="0.68" arrival="204.00" arrivalLane="-1115616585#0_0" arrivalPos="4.31" arrivalSpeed="4.35" duration="191.00" routeLength="950.65" waitingTime="7.00" waitingCount="2" stopTime="0.00" timeLoss="33.67" rerouteNo="1" devices="tripinfo_bike4 routing_bike4 fcd_bike4" vType="bike_bicycle" speedFactor="1.09" vaporized=""/>
    <tripinfo id="bike60" depart="185.00" departLane="-8641950#3_0" departPos="1.70" departSpeed="0.00" departDelay="0.25" arrival="204.00" arrivalLane="500291586#0_0" arrivalPos="0.20" arrivalSpeed="4.28" duration="19.00" routeLength="71.38" waitingTime="0.00" waitingCount="0" stopTime="0.00" timeLoss="3.31" rerouteNo="1" devices="tripinfo_bike60 routing_bike60 fcd_bike60" vType="bike_bicycle" speedFactor="0.85" vaporized=""/>
    <tripinfo id="veh22" depart="23.00" departLane="-8651358#1_0" departPos="5.10" departSpeed="10.70" departDelay="0.09" arrival="204.00" arrivalLane="426456594#3_0" arrivalPos="0.20" arrivalSpeed="7.59" duration="181.00" routeLength="720.33" waitingTime="83.00" waitingCount="4" stopTime="0.00" timeLoss="111.81" rerouteNo="1" devices="tripinfo_veh22 routing_veh22 fcd_veh22" vType="veh_passenger" speedFactor="0.96" vaporized=""/>
    <tripinfo id="veh57" depart="60.00" departLane="103554256#0_0" departPos="5.10" departSpeed="11.27" departDelay="0.65" arrival="204.00" arrivalLane="289468262#2_1" arrivalPos="1.18" arrivalSpeed="11.14" duration="144.00" routeLength="554.33" waitingTime="74.00" waitingCount="2" stopTime="0.00" timeLoss="94.56" rerouteNo="1" devices="tripinfo_veh57 routing_veh57 fcd_veh57" vType="veh_passenger" speedFactor="1.01" vaporized=""/>
    <personinfo id="ped226" depart="163.00" type="ped_pedestrian" speedFactor="0.77" duration="43.00" waitingTime="0.00" timeLoss="15.35" traveltime="43.00">
        <walk depart="163.00" departPos="0.00" arrival="206.00" arrivalPos="0.10" duration="43.00" routeLength="29.56" timeLoss="15.35" maxSpeed="1.07"/>
    </personinfo>
    <tripinfo id="veh104" depart="109.00" departLane="-8647156#1_0" departPos="5.10" departSpeed="8.69" departDelay="0.72" arrival="211.00" arrivalLane="8646816#1_1" arrivalPos="56.36" arrivalSpeed="11.50" duration="102.00" routeLength="652.49" waitingTime="20.00" waitingCount="4" stopTime="0.00" timeLoss="44.21" rerouteNo="1" devices="tripinfo_veh104 routing_veh104 fcd_veh104" vType="veh_passenger" speedFactor="1.05" vaporized=""/>
    <tripinfo id="veh70" depart="73.00" departLane="-985552044#4_1" departPos="5.10" departSpeed="0.00" departDelay="0.12" arrival="213.00" arrivalLane="426487635#1_1" arrivalPos="3.54" arrivalSpeed="9.37" duration="140.00" routeLength="578.86" waitingTime="32.00" waitingCount="2" stopTime="0.00" timeLoss="87.90" rerouteNo="1" devices="tripinfo_veh70 routing_veh70 fcd_veh70" vType="veh_passenger" speedFactor="1.00" vaporized=""/>
    <tripinfo id="motorcycle11" depart="55.00" departLane="139937095_0" departPos="2.30" departSpeed="11.36" departDelay="0.03" arrival="214.00" arrivalLane="-8651340#1_1" arrivalPos="26.59" arrivalSpeed="9.58" duration="159.00" routeLength="1028.50" waitingTime="21.00" waitingCount="2" stopTime="0.00" timeLoss="67.76" rerouteNo="1" devices="tripinfo_motorcycle11 routing_motorcycle11 fcd_motorcycle11" vType="motorcycle_motorcycle" speedFactor="1.02" vaporized=""/>
    <personinfo id="ped44" depart="32.00" type="ped_pedestrian" speedFactor="1.21" duration="184.00" waitingTime="0.00" timeLoss="27.65" traveltime="184.00">
        <walk depart="32.00" departPos="0.00" arrival="216.00" arrivalPos="13.48" duration="184.00" routeLength="262.14" timeLoss="27.65" maxSpeed="1.68"/>
    </personinfo>
    <personinfo id="ped15" depart="11.00" type="ped_pedestrian" speedFactor="1.14" duration="206.00" waitingTime="0.00" timeLoss="27.14" traveltime="206.00">
        <walk depart="11.00" departPos="0.00" arrival="217.00" arrivalPos="14.34" duration="206.00" routeLength="283.15" timeLoss="27.14" maxSpeed="1.58"/>
    </personinfo>
    <tripinfo id="veh35" depart="37.00" departLane="-8642454#0_0" departPos="0.67" departSpeed="0.00" departDelay="0.56" arrival="217.00" arrivalLane="8638252#4_1" arrivalPos="38.39" arrivalSpeed="9.48" duration="180.00" routeLength="860.07" waitingTime="55.00" waitingCount="4" stopTime="0.00" timeLoss="90.47" rerouteNo="1" devices="tripinfo_veh35 routing_veh35 fcd_veh35" vType="veh_passenger" speedFactor="0.87" vaporized=""/>
    <tripinfo id="veh2" depart="3.00" departLane="8644957#1_1" departPos="5.10" departSpeed="0.00" departDelay="0.92" arrival="219.00" arrivalLane="8641950#1_0" arrivalPos="13.08" arrivalSpeed="8.47" duration="216.00" routeLength="1468.00" waitingTime="48.00" waitingCount="3" stopTime="0.00" timeLoss="88.72" rerouteNo="1" devices="tripinfo_veh2 routing_veh2 fcd_veh2" vType="veh_passenger" speedFactor="1.04" vaporized=""/>
    <tripinfo id="veh90" depart="95.00" departLane="825494585#2_0" departPos="5.10" departSpeed="0.00" departDelay="1.29" arrival="220.00" arrivalLane="8636143_1" arrivalPos="40.28" arrivalSpeed="12.14" duration="125.00" routeLength="905.42" waitingTime="15.00" waitingCount="2" stopTime="0.00" timeLoss="51.95" rerouteNo="1" devices="tripinfo_veh90 routing_veh90 fcd_veh90" vType="veh_passenger" speedFactor="1.12" vaporized=""/>
    <tripinfo id="veh83" depart="87.00" departLane="63106577#0_1" departPos="5.10" departSpeed="0.00" departDelay="0.58" arrival="226.00" arrivalLane="8646962#1_0" arrivalPos="0.20" arrivalSpeed="9.42" duration="139.00" routeLength="574.18" waitingTime="58.00" waitingCount="3" stopTime="0.00" timeLoss="84.32" rerouteNo="1" devices="tripinfo_veh83 routing_veh83 fcd_veh83" vType="veh_passenger" speedFactor="0.97" vaporized=""/>
    <personinfo id="ped26" depart="19.00" type="ped_pedestrian" speedFactor="0.84" duration="209.00" waitingTime="0.00" timeLoss="27.68" traveltime="209.00">
        <walk depart="19.00" departPos="0.00" arrival="228.00" arrivalPos="0.10" duration="209.00" routeLength="210.59" timeLoss="27.68" maxSpeed="1.16"/>
    </personinfo>
    <tripinfo id="veh170" depart="177.00" departLane="426487627#1_2" departPos="5.10" departSpeed="0.00" departDelay="0.00" arrival="231.00" arrivalLane="8648635_0" arrivalPos="59.26" arrivalSpeed="11.24" duration="54.00" routeLength="381.62" waitingTime="6.00" waitingCount="2" stopTime="0.00" timeLoss="22.54" rerouteNo="1" devices="tripinfo_veh170 routing_veh170 fcd_veh170" vType="veh_passenger" speedFactor="1.09" vaporized=""/>
    <tripinfo id="veh5" depart="6.00" departLane="985552043#0_1" departPos="5.10" departSpeed="0.00" departDelay="0.79" arrival="233.00" arrivalLane="1106843295#0_2" arrivalPos="6.80" arrivalSpeed="7.05" duration="227.00" routeLength="1123.62" waitingTime="91.00" waitingCount="5" stopTime="0.00" timeLoss="128.69" rerouteNo="1" devices="tripinfo_veh5 routing_veh5 fcd_veh5" vType="veh_passenger" speedFactor="1.02" vaporized=""/>
    <tripinfo id="bike22" depart="68.00" departLane="1117928632#0_0" departPos="1.70" departSpeed="0.00" departDelay="0.26" arrival="234.00" arrivalLane="-8646020#0_0" arrivalPos="7.32" arrivalSpeed="5.20" duration="166.00" routeLength="587.83" waitingTime="34.00" waitingCount="3" stopTime="0.00" timeLoss="56.60" rerouteNo="1" devices="tripinfo_bike22 routing_bike22 fcd_bike22" vType="bike_bicycle" speedFactor="0.97" vaporized=""/>
    <tripinfo id="truck0" depart="0.00" departLane="8640929#4_0" departPos="2.55" departSpeed="0.00" departDelay="0.00" arrival="235.00" arrivalLane="-380662067#2_0" arrivalPos="48.38" arrivalSpeed="10.07" duration="235.00" routeLength="923.64" waitingTime="80.00" waitingCount="4" stopTime="0.00" timeLoss="145.93" rerouteNo="1" devices="tripinfo_truck0 routing_truck0 fcd_truck0" vType="truck_truck" speedFactor="0.94" vaporized=""/>
    <tripinfo id="veh141" depart="147.00" departLane="41940341#0_0" departPos="5.10" departSpeed="11.94" departDelay="0.19" arrival="235.00" arrivalLane="-825494585#3_0" arrivalPos="3.56" arrivalSpeed="11.54" duration="88.00" routeLength="840.02" waitingTime="2.00" waitingCount="1" stopTime="0.00" timeLoss="15.47" rerouteNo="1" devices="tripinfo_veh141 routing_veh141 fcd_veh141" vType="veh_passenger" speedFactor="1.07" vaporized=""/>
    <tripinfo id="veh122" depart="132.00" departLane="8647891#2_1" departPos="0.61" departSpeed="0.00" departDelay="4.98" arrival="237.00" arrivalLane="8650688#1_1" arrivalPos="27.35" arrivalSpeed="14.12" duration="105.00" routeLength="736.88" waitingTime="11.00" waitingCount="4" stopTime="0.00" timeLoss="40.43" rerouteNo="1" devices="tripinfo_veh122 routing_veh122 fcd_veh122" vType="veh_passenger" speedFactor="1.03" vaporized=""/>