<?xml version="1.0" encoding="UTF-8"?>

<!-- generated on 2024-10-31 13:13:26 by Eclipse SUMO GUI Version 1.21.0
<sumoConfiguration xmlns:xsi="http://www.w3.org/2001/XMLSchema-instance" xsi:noNamespaceSchemaLocation="http://sumo.dlr.de/xsd/sumoConfiguration.xsd">

    <input>
        <net-file value="C:\Users\George Jiang\Desktop\../../../../Windows/system32/2024-10-29-20-01-42/osm.net.xml.gz"/>
        <route-files value="C:\Users\George Jiang\Desktop\../../../../Windows/system32/2024-10-29-20-01-42/osm.bicycle.trips.xml,C:\Users\George Jiang\Desktop\../../../../Windows/system32/2024-10-29-20-01-42/osm.bus.trips.xml,C:\Users\George Jiang\Desktop\../../../../Windows/system32/2024-10-29-20-01-42/osm.motorcycle.trips.xml,C:\Users\George Jiang\Desktop\../../../../Windows/system32/2024-10-29-20-01-42/osm.passenger.trips.xml,C:\Users\George Jiang\Desktop\../../../../Windows/system32/2024-10-29-20-01-42/osm.pedestrian.rou.xml,C:\Users\George Jiang\Desktop\../../../../Windows/system32/2024-10-29-20-01-42/osm.rail_urban.trips.xml,C:\Users\George Jiang\Desktop\../../../../Windows/system32/2024-10-29-20-01-42/osm.truck.trips.xml"/>
        <additional-files value="C:\Users\George Jiang\Desktop\additional1.xml"/>
    </input>

    <output>
        <fcd-output value="C:\Users\George Jiang\Desktop\routes.xml"/>
        <summary-output value="C:\Users\George Jiang\Desktop\summary.xml"/>
        <tripinfo-output value="C:\Users\George Jiang\Desktop\tripinfo.xml"/>
        <stop-output value="C:\Users\George Jiang\Desktop\stops.xml"/>
        <collision-output value="C:\Users\George Jiang\Desktop\collisions.xml"/>
    </output>

    <processing>
        <ignore-route-errors value="true"/>
        <tls.actuated.jam-threshold value="30"/>
    </processing>

    <routing>
        <device.rerouting.adaptation-steps value="18"/>
        <device.rerouting.adaptation-interval value="10"/>
    </routing>

    <report>
        <verbose value="true"/>
        <duration-log.statistics value="true"/>
        <no-step-log value="true"/>
    </report>

    <gui_only>
        <gui-settings-file value="C:\Users\George Jiang\Desktop\../../../../Windows/system32/2024-10-29-20-01-42/osm.view.xml"/>
    </gui_only>

</sumoConfiguration>
-->

<tripinfos xmlns:xsi="http://www.w3.org/2001/XMLSchema-instance" xsi:noNamespaceSchemaLocation="http://sumo.dlr.de/xsd/tripinfo_file.xsd">
    <personinfo id="ped67" depart="49.00" type="ped_pedestrian" speedFactor="1.07" duration="25.00" waitingTime="0.00" timeLoss="4.36" traveltime="25.00">
        <walk depart="49.00" departPos="0.00" arrival="74.00" arrivalPos="16.54" duration="25.00" routeLength="30.68" timeLoss="4.36" maxSpeed="1.49"/>
    </personinfo>
    <tripinfo id="veh42" depart="44.00" departLane="-8642454#1_0" departPos="5.10" departSpeed="11.08" departDelay="0.27" arrival="91.00" arrivalLane="426487627#0_1" arrivalPos="0.21" arrivalSpeed="10.04" duration="47.00" routeLength="428.81" waitingTime="0.00" waitingCount="0" stopTime="0.00" timeLoss="7.37" rerouteNo="1" devices="tripinfo_veh42 routing_veh42 fcd_veh42" vType="veh_passenger" speedFactor="0.99" vaporized=""/>
    <tripinfo id="motorcycle12" depart="60.00" departLane="8865426#0_0" departPos="0.20" departSpeed="11.03" departDelay="0.03" arrival="93.00" arrivalLane="380662075#2_0" arrivalPos="14.30" arrivalSpeed="10.26" duration="33.00" routeLength="293.50" waitingTime="0.00" waitingCount="0" stopTime="0.00" timeLoss="5.94" rerouteNo="1" devices="tripinfo_motorcycle12 routing_motorcycle12 fcd_motorcycle12" vType="motorcycle_motorcycle" speedFactor="0.99" vaporized=""/>
    <personinfo id="ped6" depart="5.00" type="ped_pedestrian" speedFactor="1.13" duration="90.00" waitingTime="0.00" timeLoss="12.88" traveltime="90.00">
        <walk depart="5.00" departPos="0.00" arrival="95.00" arrivalPos="2.33" duration="90.00" routeLength="120.78" timeLoss="12.88" maxSpeed="1.57"/>
    </personinfo>
    <tripinfo id="veh1" depart="2.00" departLane="1323781936#1_1" departPos="5.10" departSpeed="0.00" departDelay="0.96" arrival="98.00" arrivalLane="1154670875#1_2" arrivalPos="59.70" arrivalSpeed="10.55" duration="96.00" routeLength="571.37" waitingTime="34.00" waitingCount="1" stopTime="0.00" timeLoss="45.07" rerouteNo="1" devices="tripinfo_veh1 routing_veh1 fcd_veh1" vType="veh_passenger" speedFactor="1.03" vaporized=""/>
</tripinfos>
