<?xml version="1.0" encoding="UTF-8"?>

<!-- generated on 2024-10-25 18:56:51 by Eclipse SUMO sumo Version 1.21.0
<sumoConfiguration xmlns:xsi="http://www.w3.org/2001/XMLSchema-instance" xsi:noNamespaceSchemaLocation="http://sumo.dlr.de/xsd/sumoConfiguration.xsd">

    <input>
        <net-file value="../../../../Windows/system32/2024-10-25-18-39-20/osm.net.xml.gz"/>
        <route-files value="../../../../Windows/system32/2024-10-25-18-39-20/osm.passenger.trips.xml"/>
        <additional-files value="../../../../Windows/system32/2024-10-25-18-39-20/osm.poly.xml.gz"/>
    </input>

    <output>
        <summary-output value="summary.xml"/>
        <tripinfo-output value="tripinfo.xml"/>
    </output>

    <processing>
        <ignore-route-errors value="true"/>
        <tls.actuated.jam-threshold value="30"/>
    </processing>

    <routing>
        <device.rerouting.adaptation-steps value="18"/>
        <device.rerouting.adaptation-interval value="10"/>
    </routing>

    <report>
        <verbose value="true"/>
        <duration-log.statistics value="true"/>
        <no-step-log value="true"/>
    </report>

</sumoConfiguration>
-->

<tripinfos xmlns:xsi="http://www.w3.org/2001/XMLSchema-instance" xsi:noNamespaceSchemaLocation="http://sumo.dlr.de/xsd/tripinfo_file.xsd">
    <tripinfo id="veh1" depart="8.00" departLane="-6227658#1_0" departPos="5.09" departSpeed="0.00" departDelay="0.89" arrival="111.00" arrivalLane="-465376254#3_0" arrivalPos="8.94" arrivalSpeed="12.33" duration="103.00" routeLength="697.29" waitingTime="11.00" waitingCount="1" stopTime="0.00" timeLoss="26.85" rerouteNo="1" devices="tripinfo_veh1 routing_veh1" vType="veh_passenger" speedFactor="0.94" vaporized=""/>
    <tripinfo id="veh4" depart="29.00" departLane="1151064388#1_0" departPos="4.56" departSpeed="0.00" departDelay="0.56" arrival="125.00" arrivalLane="-1119854969#1_0" arrivalPos="1.66" arrivalSpeed="8.26" duration="96.00" routeLength="651.43" waitingTime="10.00" waitingCount="2" stopTime="0.00" timeLoss="28.56" rerouteNo="1" devices="tripinfo_veh4 routing_veh4" vType="veh_passenger" speedFactor="1.08" vaporized=""/>
    <tripinfo id="veh0" depart="0.00" departLane="251884680#1_1" departPos="5.10" departSpeed="0.00" departDelay="0.00" arrival="140.00" arrivalLane="-111833185#0_0" arrivalPos="109.20" arrivalSpeed="8.19" duration="140.00" routeLength="1353.08" waitingTime="9.00" waitingCount="2" stopTime="0.00" timeLoss="34.64" rerouteNo="1" devices="tripinfo_veh0 routing_veh0" vType="veh_passenger" speedFactor="1.06" vaporized=""/>
    <tripinfo id="veh5" depart="36.00" departLane="-4588217#1_0" departPos="5.10" departSpeed="0.00" departDelay="0.44" arrival="160.00" arrivalLane="-168940071#8_0" arrivalPos="0.67" arrivalSpeed="6.29" duration="124.00" routeLength="884.84" waitingTime="22.00" waitingCount="3" stopTime="0.00" timeLoss="52.50" rerouteNo="1" devices="tripinfo_veh5 routing_veh5" vType="veh_passenger" speedFactor="1.03" vaporized=""/>
    <tripinfo id="veh8" depart="57.00" departLane="4610374#2_0" departPos="4.91" departSpeed="0.00" departDelay="0.11" arrival="175.00" arrivalLane="22972195#2_0" arrivalPos="12.91" arrivalSpeed="9.63" duration="118.00" routeLength="824.03" waitingTime="21.00" waitingCount="1" stopTime="0.00" timeLoss="37.05" rerouteNo="1" devices="tripinfo_veh8 routing_veh8" vType="veh_passenger" speedFactor="0.89" vaporized=""/>
    <tripinfo id="veh11" depart="79.00" departLane="155186522#1_1" departPos="4.79" departSpeed="0.00" departDelay="0.78" arrival="216.00" arrivalLane="-168940071#4_0" arrivalPos="22.45" arrivalSpeed="8.73" duration="137.00" routeLength="1097.00" waitingTime="19.00" waitingCount="3" stopTime="0.00" timeLoss="47.37" rerouteNo="1" devices="tripinfo_veh11 routing_veh11" vType="veh_passenger" speedFactor="1.09" vaporized=""/>
    <tripinfo id="veh3" depart="22.00" departLane="534588621#1_1" departPos="5.10" departSpeed="0.00" departDelay="0.67" arrival="248.00" arrivalLane="153698390#1_0" arrivalPos="13.54" arrivalSpeed="11.20" duration="226.00" routeLength="1889.51" waitingTime="28.00" waitingCount="5" stopTime="0.00" timeLoss="81.39" rerouteNo="1" devices="tripinfo_veh3 routing_veh3" vType="veh_passenger" speedFactor="1.01" vaporized=""/>
    <tripinfo id="veh6" depart="43.00" departLane="-1121012037#1_0" departPos="0.20" departSpeed="0.00" departDelay="0.33" arrival="252.00" arrivalLane="4610524#0_0" arrivalPos="21.38" arrivalSpeed="6.47" duration="209.00" routeLength="1567.30" waitingTime="18.00" waitingCount="1" stopTime="0.00" timeLoss="39.41" rerouteNo="1" devices="tripinfo_veh6 routing_veh6" vType="veh_passenger" speedFactor="0.83" vaporized=""/>
    <tripinfo id="veh21" depart="150.00" departLane="168940071#5_0" departPos="5.10" departSpeed="0.00" departDelay="0.66" arrival="293.00" arrivalLane="-882389497#1_0" arrivalPos="48.32" arrivalSpeed="13.00" duration="143.00" routeLength="1090.99" waitingTime="18.00" waitingCount="2" stopTime="0.00" timeLoss="49.60" rerouteNo="1" devices="tripinfo_veh21 routing_veh21" vType="veh_passenger" speedFactor="1.02" vaporized=""/>
    <tripinfo id="veh19" depart="136.00" departLane="4610524#1_0" departPos="2.80" departSpeed="2.28" departDelay="0.89" arrival="304.00" arrivalLane="100405009#4_0" arrivalPos="11.88" arrivalSpeed="12.17" duration="168.00" routeLength="1450.70" waitingTime="25.00" waitingCount="3" stopTime="0.00" timeLoss="53.78" rerouteNo="1" devices="tripinfo_veh19 routing_veh19" vType="veh_passenger" speedFactor="0.94" vaporized=""/>
    <tripinfo id="veh28" depart="200.00" departLane="46140376#2_0" departPos="2.56" departSpeed="0.00" departDelay="0.89" arrival="318.00" arrivalLane="-24993933#0_0" arrivalPos="0.20" arrivalSpeed="7.59" duration="118.00" routeLength="615.44" waitingTime="21.00" waitingCount="3" stopTime="0.00" timeLoss="41.21" rerouteNo="1" devices="tripinfo_veh28 routing_veh28" vType="veh_passenger" speedFactor="0.95" vaporized=""/>
    <tripinfo id="veh17" depart="121.00" departLane="465376255#0_0" departPos="1.85" departSpeed="0.00" departDelay="0.11" arrival="319.00" arrivalLane="202156994#0_0" arrivalPos="75.74" arrivalSpeed="11.54" duration="198.00" routeLength="1608.69" waitingTime="19.00" waitingCount="4" stopTime="0.00" timeLoss="54.75" rerouteNo="1" devices="tripinfo_veh17 routing_veh17" vType="veh_passenger" speedFactor="0.88" vaporized=""/>
    <tripinfo id="veh20" depart="143.00" departLane="66071379#1_0" departPos="5.10" departSpeed="9.65" departDelay="0.78" arrival="321.00" arrivalLane="-51167934#4_0" arrivalPos="10.97" arrivalSpeed="9.39" duration="178.00" routeLength="1286.72" waitingTime="5.00" waitingCount="1" stopTime="0.00" timeLoss="30.80" rerouteNo="1" devices="tripinfo_veh20 routing_veh20" vType="veh_passenger" speedFactor="1.16" vaporized=""/>
    <tripinfo id="veh29" depart="207.00" departLane="195401013#2_2" departPos="5.10" departSpeed="0.00" departDelay="0.77" arrival="325.00" arrivalLane="301610520#1_0" arrivalPos="7.99" arrivalSpeed="10.11" duration="118.00" routeLength="1266.08" waitingTime="6.00" waitingCount="2" stopTime="0.00" timeLoss="35.38" rerouteNo="1" devices="tripinfo_veh29 routing_veh29" vType="veh_passenger" speedFactor="1.13" vaporized=""/>
    <tripinfo id="veh25" depart="178.00" departLane="289830064#0_1" departPos="0.20" departSpeed="0.00" departDelay="0.22" arrival="346.00" arrivalLane="23851930_0" arrivalPos="0.20" arrivalSpeed="6.21" duration="168.00" routeLength="1068.22" waitingTime="5.00" waitingCount="1" stopTime="0.00" timeLoss="30.53" rerouteNo="1" devices="tripinfo_veh25 routing_veh25" vType="veh_passenger" speedFactor="0.83" vaporized=""/>
    <tripinfo id="veh14" depart="102.00" departLane="190447766#1_0" departPos="5.10" departSpeed="0.00" departDelay="2.44" arrival="364.00" arrivalLane="82658671#1_0" arrivalPos="34.20" arrivalSpeed="8.22" duration="262.00" routeLength="2288.69" waitingTime="44.00" waitingCount="5" stopTime="0.00" timeLoss="89.13" rerouteNo="1" devices="tripinfo_veh14 routing_veh14" vType="veh_passenger" speedFactor="1.12" vaporized=""/>
    <tripinfo id="veh16" depart="114.00" departLane="4611726#1_0" departPos="5.10" departSpeed="0.00" departDelay="0.22" arrival="373.00" arrivalLane="24243107#2_0" arrivalPos="22.54" arrivalSpeed="12.43" duration="259.00" routeLength="2148.18" waitingTime="22.00" waitingCount="3" stopTime="0.00" timeLoss="54.46" rerouteNo="1" devices="tripinfo_veh16 routing_veh16" vType="veh_passenger" speedFactor="0.93" vaporized=""/>
    <tripinfo id="veh45" depart="321.00" departLane="830728708#0_0" departPos="5.04" departSpeed="13.29" departDelay="0.99" arrival="380.00" arrivalLane="-4612969#1_0" arrivalPos="14.92" arrivalSpeed="7.80" duration="59.00" routeLength="497.39" waitingTime="0.00" waitingCount="0" stopTime="0.00" timeLoss="5.64" rerouteNo="1" devices="tripinfo_veh45 routing_veh45" vType="veh_passenger" speedFactor="0.96" vaporized=""/>
    <tripinfo id="veh22" depart="157.00" departLane="24993933#0_0" departPos="0.20" departSpeed="0.00" departDelay="0.55" arrival="383.00" arrivalLane="-1120532695_0" arrivalPos="86.53" arrivalSpeed="13.39" duration="226.00" routeLength="1647.87" waitingTime="40.00" waitingCount="3" stopTime="0.00" timeLoss="77.17" rerouteNo="1" devices="tripinfo_veh22 routing_veh22" vType="veh_passenger" speedFactor="1.01" vaporized=""/>
    <tripinfo id="veh7" depart="50.00" departLane="289830064#1_1" departPos="5.10" departSpeed="0.00" departDelay="0.22" arrival="395.00" arrivalLane="194073677#1_0" arrivalPos="9.03" arrivalSpeed="2.57" duration="345.00" routeLength="3020.73" waitingTime="25.00" waitingCount="5" stopTime="0.00" timeLoss="86.23" rerouteNo="1" devices="tripinfo_veh7 routing_veh7" vType="veh_passenger" speedFactor="1.05" vaporized=""/>
    <tripinfo id="veh10" depart="72.00" departLane="1103300964_0" departPos="5.10" departSpeed="4.41" departDelay="0.89" arrival="396.00" arrivalLane="-310177222#1_0" arrivalPos="148.31" arrivalSpeed="7.06" duration="324.00" routeLength="1705.91" waitingTime="71.00" waitingCount="6" stopTime="0.00" timeLoss="121.13" rerouteNo="1" devices="tripinfo_veh10 routing_veh10" vType="veh_passenger" speedFactor="0.86" vaporized=""/>
    <tripinfo id="veh31" depart="221.00" departLane="-4610607#0_0" departPos="0.81" departSpeed="0.00" departDelay="0.55" arrival="398.00" arrivalLane="234463931#1_0" arrivalPos="25.45" arrivalSpeed="16.26" duration="177.00" routeLength="1264.58" waitingTime="50.00" waitingCount="3" stopTime="0.00" timeLoss="78.62" rerouteNo="1" devices="tripinfo_veh31 routing_veh31" vType="veh_passenger" speedFactor="1.18" vaporized=""/>
    <tripinfo id="veh15" depart="107.00" departLane="112128419#1_1" departPos="5.10" departSpeed="0.00" departDelay="0.33" arrival="405.00" arrivalLane="195104956#1_0" arrivalPos="40.52" arrivalSpeed="7.30" duration="298.00" routeLength="2673.96" waitingTime="37.00" waitingCount="4" stopTime="0.00" timeLoss="81.21" rerouteNo="1" devices="tripinfo_veh15 routing_veh15" vType="veh_passenger" speedFactor="0.99" vaporized=""/>
    <tripinfo id="veh18" depart="128.00" departLane="312514710_2" departPos="0.20" departSpeed="11.63" departDelay="0.00" arrival="421.00" arrivalLane="-1133992822#0_0" arrivalPos="42.45" arrivalSpeed="7.09" duration="293.00" routeLength="1886.65" waitingTime="80.00" waitingCount="5" stopTime="0.00" timeLoss="120.06" rerouteNo="1" devices="tripinfo_veh18 routing_veh18" vType="veh_passenger" speedFactor="0.94" vaporized=""/>
    <tripinfo id="veh26" depart="185.00" departLane="28251222#0_0" departPos="5.10" departSpeed="0.00" departDelay="0.11" arrival="423.00" arrivalLane="33301683_0" arrivalPos="191.18" arrivalSpeed="11.02" duration="238.00" routeLength="1794.94" waitingTime="33.00" waitingCount="4" stopTime="0.00" timeLoss="64.98" rerouteNo="1" devices="tripinfo_veh26 routing_veh26" vType="veh_passenger" speedFactor="0.87" vaporized=""/>
    <tripinfo id="veh34" depart="242.00" departLane="-292429062#0_0" departPos="5.10" departSpeed="0.00" departDelay="0.22" arrival="423.00" arrivalLane="1132678575#1_1" arrivalPos="0.20" arrivalSpeed="6.70" duration="181.00" routeLength="1889.97" waitingTime="3.00" waitingCount="1" stopTime="0.00" timeLoss="38.65" rerouteNo="1" devices="tripinfo_veh34 routing_veh34" vType="veh_passenger" speedFactor="1.01" vaporized=""/>
    <tripinfo id="veh12" depart="86.00" departLane="4612973#1_0" departPos="5.10" departSpeed="0.00" departDelay="0.67" arrival="425.00" arrivalLane="23809678#2_0" arrivalPos="2.88" arrivalSpeed="7.39" duration="339.00" routeLength="2260.09" waitingTime="60.00" waitingCount="7" stopTime="0.00" timeLoss="116.01" rerouteNo="1" devices="tripinfo_veh12 routing_veh12" vType="veh_passenger" speedFactor="1.03" vaporized=""/>
    <tripinfo id="veh41" depart="292.00" departLane="155186522#0_1" departPos="4.06" departSpeed="0.00" departDelay="0.44" arrival="426.00" arrivalLane="-114667396#0_0" arrivalPos="0.69" arrivalSpeed="8.91" duration="134.00" routeLength="866.40" waitingTime="24.00" waitingCount="4" stopTime="0.00" timeLoss="48.70" rerouteNo="1" devices="tripinfo_veh41 routing_veh41" vType="veh_passenger" speedFactor="1.10" vaporized=""/>
    <tripinfo id="veh44" depart="313.00" departLane="-1159156576#0_0" departPos="5.10" departSpeed="0.00" departDelay="0.11" arrival="437.00" arrivalLane="1126237668#1_1" arrivalPos="113.18" arrivalSpeed="13.89" duration="124.00" routeLength="976.04" waitingTime="16.00" waitingCount="2" stopTime="0.00" timeLoss="37.68" rerouteNo="1" devices="tripinfo_veh44 routing_veh44" vType="veh_passenger" speedFactor="1.03" vaporized=""/>
    <tripinfo id="veh35" depart="249.00" departLane="61584187#1_0" departPos="5.10" departSpeed="0.00" departDelay="0.11" arrival="455.00" arrivalLane="1218225317#4_0" arrivalPos="15.69" arrivalSpeed="9.49" duration="206.00" routeLength="1845.12" waitingTime="34.00" waitingCount="3" stopTime="0.00" timeLoss="75.05" rerouteNo="1" devices="tripinfo_veh35 routing_veh35" vType="veh_passenger" speedFactor="1.17" vaporized=""/>
    <tripinfo id="veh13" depart="93.00" departLane="4610374#3_0" departPos="5.10" departSpeed="0.00" departDelay="0.55" arrival="463.00" arrivalLane="33301683_0" arrivalPos="191.18" arrivalSpeed="13.39" duration="370.00" routeLength="3113.78" waitingTime="56.00" waitingCount="8" stopTime="0.00" timeLoss="122.59" rerouteNo="1" devices="tripinfo_veh13 routing_veh13" vType="veh_passenger" speedFactor="1.05" vaporized=""/>
    <tripinfo id="veh39" depart="278.00" departLane="1127597264#1_0" departPos="5.10" departSpeed="0.00" departDelay="0.66" arrival="463.00" arrivalLane="-4612970#0_0" arrivalPos="60.99" arrivalSpeed="7.04" duration="185.00" routeLength="1137.11" waitingTime="26.00" waitingCount="3" stopTime="0.00" timeLoss="58.01" rerouteNo="1" devices="tripinfo_veh39 routing_veh39" vType="veh_passenger" speedFactor="0.97" vaporized=""/>
    <tripinfo id="veh9" depart="64.00" departLane="4610374#2_0" departPos="4.91" departSpeed="0.00" departDelay="0.00" arrival="474.00" arrivalLane="30721660#1_0" arrivalPos="17.29" arrivalSpeed="6.70" duration="410.00" routeLength="1858.62" waitingTime="67.00" waitingCount="7" stopTime="0.00" timeLoss="138.93" rerouteNo="1" devices="tripinfo_veh9 routing_veh9" vType="veh_passenger" speedFactor="0.94" vaporized=""/>
    <tripinfo id="veh40" depart="285.00" departLane="-902316106#1_0" departPos="5.10" departSpeed="0.00" departDelay="0.55" arrival="477.00" arrivalLane="169195795#0_0" arrivalPos="73.89" arrivalSpeed="15.87" duration="192.00" routeLength="1662.38" waitingTime="36.00" waitingCount="3" stopTime="0.00" timeLoss="68.53" rerouteNo="1" devices="tripinfo_veh40 routing_veh40" vType="veh_passenger" speedFactor="1.18" vaporized=""/>
    <tripinfo id="veh52" depart="370.00" departLane="158023913#1_0" departPos="5.10" departSpeed="0.00" departDelay="0.22" arrival="483.00" arrivalLane="4402014#0_0" arrivalPos="1.90" arrivalSpeed="7.83" duration="113.00" routeLength="622.13" waitingTime="31.00" waitingCount="3" stopTime="0.00" timeLoss="54.07" rerouteNo="1" devices="tripinfo_veh52 routing_veh52" vType="veh_passenger" speedFactor="1.00" vaporized=""/>
    <tripinfo id="veh58" depart="413.00" departLane="-1024034687_0" departPos="5.10" departSpeed="0.00" departDelay="0.55" arrival="487.00" arrivalLane="1105526112#1_1" arrivalPos="27.00" arrivalSpeed="14.00" duration="74.00" routeLength="389.38" waitingTime="30.00" waitingCount="1" stopTime="0.00" timeLoss="39.84" rerouteNo="1" devices="tripinfo_veh58 routing_veh58" vType="veh_passenger" speedFactor="1.02" vaporized=""/>
    <tripinfo id="veh47" depart="335.00" departLane="30721660#3_0" departPos="5.10" departSpeed="0.00" departDelay="0.77" arrival="504.00" arrivalLane="19002363#6_0" arrivalPos="10.44" arrivalSpeed="9.07" duration="169.00" routeLength="1276.04" waitingTime="18.00" waitingCount="2" stopTime="0.00" timeLoss="40.07" rerouteNo="1" devices="tripinfo_veh47 routing_veh47" vType="veh_passenger" speedFactor="1.09" vaporized=""/>
    <tripinfo id="veh23" depart="164.00" departLane="1119935327#1_1" departPos="5.10" departSpeed="0.00" departDelay="0.44" arrival="507.00" arrivalLane="-4612966_0" arrivalPos="3.35" arrivalSpeed="7.82" duration="343.00" routeLength="2743.32" waitingTime="68.00" waitingCount="6" stopTime="0.00" timeLoss="116.62" rerouteNo="1" devices="tripinfo_veh23 routing_veh23" vType="veh_passenger" speedFactor="0.97" vaporized=""/>
    <tripinfo id="veh36" depart="256.00" departLane="-51167934#1_0" departPos="2.75" departSpeed="0.00" departDelay="0.00" arrival="508.00" arrivalLane="-66071366#0_0" arrivalPos="51.19" arrivalSpeed="13.61" duration="252.00" routeLength="1974.79" waitingTime="22.00" waitingCount="4" stopTime="0.00" timeLoss="55.07" rerouteNo="1" devices="tripinfo_veh36 routing_veh36" vType="veh_passenger" speedFactor="0.99" vaporized=""/>
    <tripinfo id="veh38" depart="271.00" departLane="23013165_1" departPos="5.10" departSpeed="0.00" departDelay="0.77" arrival="508.00" arrivalLane="51167934#4_0" arrivalPos="10.97" arrivalSpeed="8.34" duration="237.00" routeLength="1366.27" waitingTime="60.00" waitingCount="5" stopTime="0.00" timeLoss="93.71" rerouteNo="1" devices="tripinfo_veh38 routing_veh38" vType="veh_passenger" speedFactor="1.02" vaporized=""/>
    <tripinfo id="veh24" depart="171.00" departLane="-51167934#4_0" departPos="5.10" departSpeed="0.00" departDelay="0.33" arrival="516.00" arrivalLane="66311464#1_0" arrivalPos="0.23" arrivalSpeed="6.75" duration="345.00" routeLength="1994.18" waitingTime="61.00" waitingCount="8" stopTime="0.00" timeLoss="117.31" rerouteNo="1" devices="tripinfo_veh24 routing_veh24" vType="veh_passenger" speedFactor="0.89" vaporized=""/>
    <tripinfo id="veh30" depart="214.00" departLane="4612970#0_0" departPos="5.10" departSpeed="7.76" departDelay="0.66" arrival="519.00" arrivalLane="415280722_2" arrivalPos="27.42" arrivalSpeed="12.75" duration="305.00" routeLength="2460.44" waitingTime="16.00" waitingCount="4" stopTime="0.00" timeLoss="70.13" rerouteNo="1" devices="tripinfo_veh30 routing_veh30" vType="veh_passenger" speedFactor="0.93" vaporized=""/>
    <tripinfo id="veh33" depart="235.00" departLane="490365295#0_1" departPos="5.10" departSpeed="0.00" departDelay="0.33" arrival="519.00" arrivalLane="1100824590#1_0" arrivalPos="12.95" arrivalSpeed="15.22" duration="284.00" routeLength="2274.21" waitingTime="77.00" waitingCount="5" stopTime="0.00" timeLoss="128.27" rerouteNo="1" devices="tripinfo_veh33 routing_veh33" vType="veh_passenger" speedFactor="1.15" vaporized=""/>
    <tripinfo id="veh27" depart="192.00" departLane="-24992424#5_0" departPos="5.10" departSpeed="0.00" departDelay="0.00" arrival="543.00" arrivalLane="1126234503#0_1" arrivalPos="29.90" arrivalSpeed="12.53" duration="351.00" routeLength="2984.80" waitingTime="17.00" waitingCount="5" stopTime="0.00" timeLoss="67.22" rerouteNo="1" devices="tripinfo_veh27 routing_veh27" vType="veh_passenger" speedFactor="0.92" vaporized=""/>
    <tripinfo id="veh53" depart="377.00" departLane="1112054538_0" departPos="0.20" departSpeed="0.00" departDelay="0.10" arrival="559.00" arrivalLane="46140382_0" arrivalPos="0.20" arrivalSpeed="6.69" duration="182.00" routeLength="864.48" waitingTime="66.00" waitingCount="4" stopTime="0.00" timeLoss="87.85" rerouteNo="1" devices="tripinfo_veh53 routing_veh53" vType="veh_passenger" speedFactor="0.90" vaporized=""/>
    <tripinfo id="veh48" depart="342.00" departLane="-51167934#4_0" departPos="5.10" departSpeed="0.00" departDelay="0.66" arrival="560.00" arrivalLane="-24993933#2_0" arrivalPos="34.90" arrivalSpeed="7.45" duration="218.00" routeLength="1513.38" waitingTime="26.00" waitingCount="3" stopTime="0.00" timeLoss="57.44" rerouteNo="1" devices="tripinfo_veh48 routing_veh48" vType="veh_passenger" speedFactor="1.04" vaporized=""/>
    <tripinfo id="veh59" depart="420.00" departLane="-1114798610#1_0" departPos="2.95" departSpeed="0.00" departDelay="0.44" arrival="581.00" arrivalLane="66071366#1_0" arrivalPos="69.78" arrivalSpeed="14.86" duration="161.00" routeLength="1385.05" waitingTime="9.00" waitingCount="1" stopTime="0.00" timeLoss="30.12" rerouteNo="1" devices="tripinfo_veh59 routing_veh59" vType="veh_passenger" speedFactor="1.10" vaporized=""/>
    <tripinfo id="veh50" depart="356.00" departLane="120675240#1_0" departPos="5.10" departSpeed="0.00" departDelay="0.44" arrival="595.00" arrivalLane="19002403#1_1" arrivalPos="7.79" arrivalSpeed="12.16" duration="239.00" routeLength="1728.83" waitingTime="64.00" waitingCount="4" stopTime="0.00" timeLoss="100.69" rerouteNo="1" devices="tripinfo_veh50 routing_veh50" vType="veh_passenger" speedFactor="1.09" vaporized=""/>
    <tripinfo id="veh71" depart="505.00" departLane="1159142856#1_0" departPos="5.10" departSpeed="0.00" departDelay="0.10" arrival="624.00" arrivalLane="171423001#3_0" arrivalPos="13.44" arrivalSpeed="12.06" duration="119.00" routeLength="831.65" waitingTime="16.00" waitingCount="2" stopTime="0.00" timeLoss="35.65" rerouteNo="1" devices="tripinfo_veh71 routing_veh71" vType="veh_passenger" speedFactor="0.94" vaporized=""/>
    <tripinfo id="veh70" depart="498.00" departLane="882389494#1_1" departPos="5.10" departSpeed="0.00" departDelay="0.21" arrival="662.00" arrivalLane="-1123150361#1_0" arrivalPos="129.49" arrivalSpeed="7.36" duration="164.00" routeLength="1665.66" waitingTime="0.00" waitingCount="0" stopTime="0.00" timeLoss="30.20" rerouteNo="1" devices="tripinfo_veh70 routing_veh70" vType="veh_passenger" speedFactor="0.99" vaporized=""/>
    <tripinfo id="veh73" depart="520.00" departLane="1103300964_0" departPos="5.10" departSpeed="4.41" departDelay="0.88" arrival="666.00" arrivalLane="225400578#3_0" arrivalPos="19.08" arrivalSpeed="7.53" duration="146.00" routeLength="671.06" waitingTime="38.00" waitingCount="3" stopTime="0.00" timeLoss="55.89" rerouteNo="1" devices="tripinfo_veh73 routing_veh73" vType="veh_passenger" speedFactor="0.91" vaporized=""/>
    <tripinfo id="veh49" depart="349.00" departLane="-176043806#2_0" departPos="5.10" departSpeed="14.49" departDelay="0.55" arrival="670.00" arrivalLane="11549895_0" arrivalPos="20.15" arrivalSpeed="8.45" duration="321.00" routeLength="2792.91" waitingTime="56.00" waitingCount="4" stopTime="0.00" timeLoss="104.95" rerouteNo="1" devices="tripinfo_veh49 routing_veh49" vType="veh_passenger" speedFactor="1.04" vaporized=""/>
    <tripinfo id="veh77" depart="548.00" departLane="465376243_0" departPos="5.10" departSpeed="0.00" departDelay="0.43" arrival="670.00" arrivalLane="-1198409426#0_0" arrivalPos="25.72" arrivalSpeed="12.99" duration="122.00" routeLength="885.10" waitingTime="11.00" waitingCount="1" stopTime="0.00" timeLoss="29.99" rerouteNo="1" devices="tripinfo_veh77 routing_veh77" vType="veh_passenger" speedFactor="1.02" vaporized=""/>
    <tripinfo id="veh61" depart="437.00" departLane="492340367#1_0" departPos="5.10" departSpeed="0.00" departDelay="3.21" arrival="672.00" arrivalLane="72157174#1_0" arrivalPos="70.78" arrivalSpeed="13.53" duration="235.00" routeLength="1806.06" waitingTime="49.00" waitingCount="4" stopTime="0.00" timeLoss="78.62" rerouteNo="1" devices="tripinfo_veh61 routing_veh61" vType="veh_passenger" speedFactor="1.00" vaporized=""/>
    <tripinfo id="veh64" depart="456.00" departLane="374734389#0_0" departPos="5.10" departSpeed="14.22" departDelay="0.88" arrival="683.00" arrivalLane="-23121445#4_0" arrivalPos="37.76" arrivalSpeed="8.03" duration="227.00" routeLength="1823.39" waitingTime="43.00" waitingCount="6" stopTime="0.00" timeLoss="86.18" rerouteNo="1" devices="tripinfo_veh64 routing_veh64" vType="veh_passenger" speedFactor="1.02" vaporized=""/>
    <tripinfo id="veh54" depart="385.00" departLane="84960597#1_0" departPos="0.20" departSpeed="0.00" departDelay="0.99" arrival="695.00" arrivalLane="24992424#3_0" arrivalPos="25.87" arrivalSpeed="12.08" duration="310.00" routeLength="1697.51" waitingTime="75.00" waitingCount="6" stopTime="0.00" timeLoss="119.72" rerouteNo="1" devices="tripinfo_veh54 routing_veh54" vType="veh_passenger" speedFactor="0.88" vaporized=""/>
    <tripinfo id="veh69" depart="491.00" departLane="-437325047#3_0" departPos="5.10" departSpeed="0.00" departDelay="0.32" arrival="703.00" arrivalLane="1217865061#0_0" arrivalPos="28.04" arrivalSpeed="13.93" duration="212.00" routeLength="1809.01" waitingTime="15.00" waitingCount="3" stopTime="0.00" timeLoss="44.31" rerouteNo="1" devices="tripinfo_veh69 routing_veh69" vType="veh_passenger" speedFactor="1.02" vaporized=""/>
    <tripinfo id="veh66" depart="470.00" departLane="51167934#1_0" departPos="2.96" departSpeed="0.00" departDelay="0.66" arrival="715.00" arrivalLane="461526152#1_1" arrivalPos="58.93" arrivalSpeed="14.84" duration="245.00" routeLength="1323.39" waitingTime="33.00" waitingCount="5" stopTime="0.00" timeLoss="93.56" rerouteNo="1" devices="tripinfo_veh66 routing_veh66" vType="veh_passenger" speedFactor="1.08" vaporized=""/>
    <tripinfo id="veh42" depart="299.00" departLane="-176043806#2_0" departPos="5.10" departSpeed="12.51" departDelay="0.33" arrival="716.00" arrivalLane="24540242#1_1" arrivalPos="0.20" arrivalSpeed="11.76" duration="417.00" routeLength="3136.95" waitingTime="64.00" waitingCount="10" stopTime="0.00" timeLoss="137.41" rerouteNo="1" devices="tripinfo_veh42 routing_veh42" vType="veh_passenger" speedFactor="0.90" vaporized=""/>
    <tripinfo id="veh57" depart="406.00" departLane="42103020#2_2" departPos="5.10" departSpeed="0.00" departDelay="0.66" arrival="722.00" arrivalLane="188914559_0" arrivalPos="98.41" arrivalSpeed="8.66" duration="316.00" routeLength="2643.03" waitingTime="50.00" waitingCount="7" stopTime="0.00" timeLoss="134.04" rerouteNo="1" devices="tripinfo_veh57 routing_veh57" vType="veh_passenger" speedFactor="1.17" vaporized=""/>
    <tripinfo id="veh72" depart="513.00" departLane="-195104956#0_0" departPos="5.10" departSpeed="0.00" departDelay="0.99" arrival="729.00" arrivalLane="-4773029#1_0" arrivalPos="13.21" arrivalSpeed="6.16" duration="216.00" routeLength="1528.34" waitingTime="16.00" waitingCount="4" stopTime="0.00" timeLoss="55.73" rerouteNo="1" devices="tripinfo_veh72 routing_veh72" vType="veh_passenger" speedFactor="0.88" vaporized=""/>
    <tripinfo id="veh68" depart="484.00" departLane="194069450#0_0" departPos="5.10" departSpeed="0.00" departDelay="0.44" arrival="742.00" arrivalLane="33301683_0" arrivalPos="191.18" arrivalSpeed="14.86" duration="258.00" routeLength="2170.23" waitingTime="41.00" waitingCount="6" stopTime="0.00" timeLoss="103.22" rerouteNo="1" devices="tripinfo_veh68 routing_veh68" vType="veh_passenger" speedFactor="1.12" vaporized=""/>
    <tripinfo id="veh74" depart="527.00" departLane="-4611693#0_0" departPos="5.10" departSpeed="0.00" departDelay="0.77" arrival="744.00" arrivalLane="-4612970#1_0" arrivalPos="0.35" arrivalSpeed="4.78" duration="217.00" routeLength="1476.53" waitingTime="19.00" waitingCount="6" stopTime="0.00" timeLoss="68.68" rerouteNo="1" devices="tripinfo_veh74 routing_veh74" vType="veh_passenger" speedFactor="0.91" vaporized=""/>
    <tripinfo id="veh91" depart="648.00" departLane="-474362271_0" departPos="5.10" departSpeed="0.00" departDelay="0.88" arrival="760.00" arrivalLane="606078071#0_0" arrivalPos="45.44" arrivalSpeed="13.16" duration="112.00" routeLength="1003.95" waitingTime="20.00" waitingCount="1" stopTime="0.00" timeLoss="34.08" rerouteNo="1" devices="tripinfo_veh91 routing_veh91" vType="veh_passenger" speedFactor="1.03" vaporized=""/>
    <tripinfo id="veh63" depart="449.00" departLane="-1179820254#0_0" departPos="5.10" departSpeed="0.00" departDelay="0.99" arrival="769.00" arrivalLane="344594966_0" arrivalPos="4.82" arrivalSpeed="14.86" duration="320.00" routeLength="2065.57" waitingTime="70.00" waitingCount="8" stopTime="0.00" timeLoss="169.85" rerouteNo="1" devices="tripinfo_veh63 routing_veh63" vType="veh_passenger" speedFactor="1.14" vaporized=""/>
    <tripinfo id="veh79" depart="562.00" departLane="-4412868#1_0" departPos="5.10" departSpeed="0.00" departDelay="0.21" arrival="770.00" arrivalLane="-23809670#0_0" arrivalPos="15.79" arrivalSpeed="8.09" duration="208.00" routeLength="1717.38" waitingTime="39.00" waitingCount="3" stopTime="0.00" timeLoss="62.40" rerouteNo="1" devices="tripinfo_veh79 routing_veh79" vType="veh_passenger" speedFactor="1.02" vaporized=""/>
    <tripinfo id="veh93" depart="662.00" departLane="950222545_0" departPos="0.68" departSpeed="0.00" departDelay="0.65" arrival="775.00" arrivalLane="4610607#0_0" arrivalPos="0.81" arrivalSpeed="5.53" duration="113.00" routeLength="879.29" waitingTime="1.00" waitingCount="1" stopTime="0.00" timeLoss="22.30" rerouteNo="1" devices="tripinfo_veh93 routing_veh93" vType="veh_passenger" speedFactor="1.02" vaporized=""/>